ITEM: TIMESTEP
0
ITEM: NUMBER OF ATOMS
4000
ITEM: BOX BOUNDS pp pp pp
0.0000000000000000e+00 1.6795961913825074e+01
0.0000000000000000e+00 1.6795961913825074e+01
0.0000000000000000e+00 1.6795961913825074e+01
ITEM: ATOMS id type xs ys zs
1 1 0 0 0
2 1 0.05 0.05 0
3 1 0.05 0 0.05
4 1 0 0.05 0.05
5 1 0.1 0 0
6 1 0.15 0.05 0
7 1 0.15 0 0.05
8 1 0.1 0.05 0.05
9 1 0.2 0 0
10 1 0.25 0.05 0
11 1 0.25 0 0.05
12 1 0.2 0.05 0.05
13 1 0.3 0 0
14 1 0.35 0.05 0
15 1 0.35 0 0.05
16 1 0.3 0.05 0.05
17 1 0.4 0 0
18 1 0.45 0.05 0
19 1 0.45 0 0.05
20 1 0.4 0.05 0.05
21 1 0.5 0 0
24 1 0.5 0.05 0.05
22 1 0.55 0.05 0
23 1 0.55 0 0.05
25 1 0.6 0 0
28 1 0.6 0.05 0.05
26 1 0.65 0.05 0
27 1 0.65 0 0.05
29 1 0.7 0 0
32 1 0.7 0.05 0.05
30 1 0.75 0.05 0
31 1 0.75 0 0.05
33 1 0.8 0 0
36 1 0.8 0.05 0.05
34 1 0.85 0.05 0
35 1 0.85 0 0.05
37 1 0.9 0 0
40 1 0.9 0.05 0.05
38 1 0.95 0.05 0
39 1 0.95 0 0.05
41 1 0 0.1 0
42 1 0.05 0.15 0
43 1 0.05 0.1 0.05
44 1 0 0.15 0.05
45 1 0.1 0.1 0
46 1 0.15 0.15 0
47 1 0.15 0.1 0.05
48 1 0.1 0.15 0.05
49 1 0.2 0.1 0
50 1 0.25 0.15 0
51 1 0.25 0.1 0.05
52 1 0.2 0.15 0.05
53 1 0.3 0.1 0
54 1 0.35 0.15 0
55 1 0.35 0.1 0.05
56 1 0.3 0.15 0.05
57 1 0.4 0.1 0
58 1 0.45 0.15 0
59 1 0.45 0.1 0.05
60 1 0.4 0.15 0.05
61 1 0.5 0.1 0
64 1 0.5 0.15 0.05
62 1 0.55 0.15 0
63 1 0.55 0.1 0.05
65 1 0.6 0.1 0
68 1 0.6 0.15 0.05
66 1 0.65 0.15 0
67 1 0.65 0.1 0.05
69 1 0.7 0.1 0
72 1 0.7 0.15 0.05
70 1 0.75 0.15 0
71 1 0.75 0.1 0.05
73 1 0.8 0.1 0
76 1 0.8 0.15 0.05
74 1 0.85 0.15 0
75 1 0.85 0.1 0.05
77 1 0.9 0.1 0
80 1 0.9 0.15 0.05
78 1 0.95 0.15 0
79 1 0.95 0.1 0.05
81 1 0 0.2 0
82 1 0.05 0.25 0
83 1 0.05 0.2 0.05
84 1 0 0.25 0.05
85 1 0.1 0.2 0
86 1 0.15 0.25 0
87 1 0.15 0.2 0.05
88 1 0.1 0.25 0.05
89 1 0.2 0.2 0
90 1 0.25 0.25 0
91 1 0.25 0.2 0.05
92 1 0.2 0.25 0.05
93 1 0.3 0.2 0
94 1 0.35 0.25 0
95 1 0.35 0.2 0.05
96 1 0.3 0.25 0.05
97 1 0.4 0.2 0
98 1 0.45 0.25 0
99 1 0.45 0.2 0.05
100 1 0.4 0.25 0.05
101 1 0.5 0.2 0
104 1 0.5 0.25 0.05
102 1 0.55 0.25 0
103 1 0.55 0.2 0.05
105 1 0.6 0.2 0
108 1 0.6 0.25 0.05
106 1 0.65 0.25 0
107 1 0.65 0.2 0.05
109 1 0.7 0.2 0
112 1 0.7 0.25 0.05
110 1 0.75 0.25 0
111 1 0.75 0.2 0.05
113 1 0.8 0.2 0
116 1 0.8 0.25 0.05
114 1 0.85 0.25 0
115 1 0.85 0.2 0.05
117 1 0.9 0.2 0
120 1 0.9 0.25 0.05
118 1 0.95 0.25 0
119 1 0.95 0.2 0.05
121 1 0 0.3 0
122 1 0.05 0.35 0
123 1 0.05 0.3 0.05
124 1 0 0.35 0.05
125 1 0.1 0.3 0
126 1 0.15 0.35 0
127 1 0.15 0.3 0.05
128 1 0.1 0.35 0.05
129 1 0.2 0.3 0
130 1 0.25 0.35 0
131 1 0.25 0.3 0.05
132 1 0.2 0.35 0.05
133 1 0.3 0.3 0
134 1 0.35 0.35 0
135 1 0.35 0.3 0.05
136 1 0.3 0.35 0.05
137 1 0.4 0.3 0
138 1 0.45 0.35 0
139 1 0.45 0.3 0.05
140 1 0.4 0.35 0.05
141 1 0.5 0.3 0
144 1 0.5 0.35 0.05
142 1 0.55 0.35 0
143 1 0.55 0.3 0.05
145 1 0.6 0.3 0
148 1 0.6 0.35 0.05
146 1 0.65 0.35 0
147 1 0.65 0.3 0.05
149 1 0.7 0.3 0
152 1 0.7 0.35 0.05
150 1 0.75 0.35 0
151 1 0.75 0.3 0.05
153 1 0.8 0.3 0
156 1 0.8 0.35 0.05
154 1 0.85 0.35 0
155 1 0.85 0.3 0.05
157 1 0.9 0.3 0
160 1 0.9 0.35 0.05
158 1 0.95 0.35 0
159 1 0.95 0.3 0.05
161 1 0 0.4 0
162 1 0.05 0.45 0
163 1 0.05 0.4 0.05
164 1 0 0.45 0.05
165 1 0.1 0.4 0
166 1 0.15 0.45 0
167 1 0.15 0.4 0.05
168 1 0.1 0.45 0.05
169 1 0.2 0.4 0
170 1 0.25 0.45 0
171 1 0.25 0.4 0.05
172 1 0.2 0.45 0.05
173 1 0.3 0.4 0
174 1 0.35 0.45 0
175 1 0.35 0.4 0.05
176 1 0.3 0.45 0.05
177 1 0.4 0.4 0
178 1 0.45 0.45 0
179 1 0.45 0.4 0.05
180 1 0.4 0.45 0.05
181 1 0.5 0.4 0
184 1 0.5 0.45 0.05
182 1 0.55 0.45 0
183 1 0.55 0.4 0.05
185 1 0.6 0.4 0
188 1 0.6 0.45 0.05
186 1 0.65 0.45 0
187 1 0.65 0.4 0.05
189 1 0.7 0.4 0
192 1 0.7 0.45 0.05
190 1 0.75 0.45 0
191 1 0.75 0.4 0.05
193 1 0.8 0.4 0
196 1 0.8 0.45 0.05
194 1 0.85 0.45 0
195 1 0.85 0.4 0.05
197 1 0.9 0.4 0
200 1 0.9 0.45 0.05
198 1 0.95 0.45 0
199 1 0.95 0.4 0.05
201 1 0 0.5 0
203 1 0.05 0.5 0.05
205 1 0.1 0.5 0
207 1 0.15 0.5 0.05
209 1 0.2 0.5 0
211 1 0.25 0.5 0.05
213 1 0.3 0.5 0
215 1 0.35 0.5 0.05
217 1 0.4 0.5 0
219 1 0.45 0.5 0.05
221 1 0.5 0.5 0
223 1 0.55 0.5 0.05
225 1 0.6 0.5 0
227 1 0.65 0.5 0.05
229 1 0.7 0.5 0
231 1 0.75 0.5 0.05
233 1 0.8 0.5 0
235 1 0.85 0.5 0.05
237 1 0.9 0.5 0
239 1 0.95 0.5 0.05
202 1 0.05 0.55 0
204 1 0 0.55 0.05
241 1 0 0.6 0
243 1 0.05 0.6 0.05
206 1 0.15 0.55 0
208 1 0.1 0.55 0.05
245 1 0.1 0.6 0
247 1 0.15 0.6 0.05
210 1 0.25 0.55 0
212 1 0.2 0.55 0.05
249 1 0.2 0.6 0
251 1 0.25 0.6 0.05
214 1 0.35 0.55 0
216 1 0.3 0.55 0.05
253 1 0.3 0.6 0
255 1 0.35 0.6 0.05
218 1 0.45 0.55 0
220 1 0.4 0.55 0.05
257 1 0.4 0.6 0
259 1 0.45 0.6 0.05
224 1 0.5 0.55 0.05
261 1 0.5 0.6 0
222 1 0.55 0.55 0
228 1 0.6 0.55 0.05
263 1 0.55 0.6 0.05
265 1 0.6 0.6 0
226 1 0.65 0.55 0
232 1 0.7 0.55 0.05
267 1 0.65 0.6 0.05
269 1 0.7 0.6 0
230 1 0.75 0.55 0
236 1 0.8 0.55 0.05
271 1 0.75 0.6 0.05
273 1 0.8 0.6 0
234 1 0.85 0.55 0
240 1 0.9 0.55 0.05
275 1 0.85 0.6 0.05
277 1 0.9 0.6 0
238 1 0.95 0.55 0
279 1 0.95 0.6 0.05
242 1 0.05 0.65 0
244 1 0 0.65 0.05
281 1 0 0.7 0
283 1 0.05 0.7 0.05
246 1 0.15 0.65 0
248 1 0.1 0.65 0.05
285 1 0.1 0.7 0
287 1 0.15 0.7 0.05
250 1 0.25 0.65 0
252 1 0.2 0.65 0.05
289 1 0.2 0.7 0
291 1 0.25 0.7 0.05
254 1 0.35 0.65 0
256 1 0.3 0.65 0.05
293 1 0.3 0.7 0
295 1 0.35 0.7 0.05
258 1 0.45 0.65 0
260 1 0.4 0.65 0.05
297 1 0.4 0.7 0
299 1 0.45 0.7 0.05
264 1 0.5 0.65 0.05
301 1 0.5 0.7 0
262 1 0.55 0.65 0
268 1 0.6 0.65 0.05
303 1 0.55 0.7 0.05
305 1 0.6 0.7 0
266 1 0.65 0.65 0
272 1 0.7 0.65 0.05
307 1 0.65 0.7 0.05
309 1 0.7 0.7 0
270 1 0.75 0.65 0
276 1 0.8 0.65 0.05
311 1 0.75 0.7 0.05
313 1 0.8 0.7 0
274 1 0.85 0.65 0
280 1 0.9 0.65 0.05
315 1 0.85 0.7 0.05
317 1 0.9 0.7 0
278 1 0.95 0.65 0
319 1 0.95 0.7 0.05
282 1 0.05 0.75 0
284 1 0 0.75 0.05
321 1 0 0.8 0
323 1 0.05 0.8 0.05
286 1 0.15 0.75 0
288 1 0.1 0.75 0.05
325 1 0.1 0.8 0
327 1 0.15 0.8 0.05
290 1 0.25 0.75 0
292 1 0.2 0.75 0.05
329 1 0.2 0.8 0
331 1 0.25 0.8 0.05
294 1 0.35 0.75 0
296 1 0.3 0.75 0.05
333 1 0.3 0.8 0
335 1 0.35 0.8 0.05
298 1 0.45 0.75 0
300 1 0.4 0.75 0.05
337 1 0.4 0.8 0
339 1 0.45 0.8 0.05
304 1 0.5 0.75 0.05
341 1 0.5 0.8 0
302 1 0.55 0.75 0
308 1 0.6 0.75 0.05
343 1 0.55 0.8 0.05
345 1 0.6 0.8 0
306 1 0.65 0.75 0
312 1 0.7 0.75 0.05
347 1 0.65 0.8 0.05
349 1 0.7 0.8 0
310 1 0.75 0.75 0
316 1 0.8 0.75 0.05
351 1 0.75 0.8 0.05
353 1 0.8 0.8 0
314 1 0.85 0.75 0
320 1 0.9 0.75 0.05
355 1 0.85 0.8 0.05
357 1 0.9 0.8 0
318 1 0.95 0.75 0
359 1 0.95 0.8 0.05
322 1 0.05 0.85 0
324 1 0 0.85 0.05
361 1 0 0.9 0
363 1 0.05 0.9 0.05
326 1 0.15 0.85 0
328 1 0.1 0.85 0.05
365 1 0.1 0.9 0
367 1 0.15 0.9 0.05
330 1 0.25 0.85 0
332 1 0.2 0.85 0.05
369 1 0.2 0.9 0
371 1 0.25 0.9 0.05
334 1 0.35 0.85 0
336 1 0.3 0.85 0.05
373 1 0.3 0.9 0
375 1 0.35 0.9 0.05
338 1 0.45 0.85 0
340 1 0.4 0.85 0.05
377 1 0.4 0.9 0
379 1 0.45 0.9 0.05
344 1 0.5 0.85 0.05
381 1 0.5 0.9 0
342 1 0.55 0.85 0
348 1 0.6 0.85 0.05
383 1 0.55 0.9 0.05
385 1 0.6 0.9 0
346 1 0.65 0.85 0
352 1 0.7 0.85 0.05
387 1 0.65 0.9 0.05
389 1 0.7 0.9 0
350 1 0.75 0.85 0
356 1 0.8 0.85 0.05
391 1 0.75 0.9 0.05
393 1 0.8 0.9 0
354 1 0.85 0.85 0
360 1 0.9 0.85 0.05
395 1 0.85 0.9 0.05
397 1 0.9 0.9 0
358 1 0.95 0.85 0
399 1 0.95 0.9 0.05
362 1 0.05 0.95 0
364 1 0 0.95 0.05
366 1 0.15 0.95 0
368 1 0.1 0.95 0.05
370 1 0.25 0.95 0
372 1 0.2 0.95 0.05
374 1 0.35 0.95 0
376 1 0.3 0.95 0.05
378 1 0.45 0.95 0
380 1 0.4 0.95 0.05
384 1 0.5 0.95 0.05
382 1 0.55 0.95 0
388 1 0.6 0.95 0.05
386 1 0.65 0.95 0
392 1 0.7 0.95 0.05
390 1 0.75 0.95 0
396 1 0.8 0.95 0.05
394 1 0.85 0.95 0
400 1 0.9 0.95 0.05
398 1 0.95 0.95 0
401 1 0 0 0.1
402 1 0.05 0.05 0.1
403 1 0.05 0 0.15
404 1 0 0.05 0.15
405 1 0.1 0 0.1
406 1 0.15 0.05 0.1
407 1 0.15 0 0.15
408 1 0.1 0.05 0.15
409 1 0.2 0 0.1
410 1 0.25 0.05 0.1
411 1 0.25 0 0.15
412 1 0.2 0.05 0.15
413 1 0.3 0 0.1
414 1 0.35 0.05 0.1
415 1 0.35 0 0.15
416 1 0.3 0.05 0.15
417 1 0.4 0 0.1
418 1 0.45 0.05 0.1
419 1 0.45 0 0.15
420 1 0.4 0.05 0.15
421 1 0.5 0 0.1
424 1 0.5 0.05 0.15
422 1 0.55 0.05 0.1
423 1 0.55 0 0.15
425 1 0.6 0 0.1
428 1 0.6 0.05 0.15
426 1 0.65 0.05 0.1
427 1 0.65 0 0.15
429 1 0.7 0 0.1
432 1 0.7 0.05 0.15
430 1 0.75 0.05 0.1
431 1 0.75 0 0.15
433 1 0.8 0 0.1
436 1 0.8 0.05 0.15
434 1 0.85 0.05 0.1
435 1 0.85 0 0.15
437 1 0.9 0 0.1
440 1 0.9 0.05 0.15
438 1 0.95 0.05 0.1
439 1 0.95 0 0.15
441 1 0 0.1 0.1
442 1 0.05 0.15 0.1
443 1 0.05 0.1 0.15
444 1 0 0.15 0.15
445 1 0.1 0.1 0.1
446 1 0.15 0.15 0.1
447 1 0.15 0.1 0.15
448 1 0.1 0.15 0.15
449 1 0.2 0.1 0.1
450 1 0.25 0.15 0.1
451 1 0.25 0.1 0.15
452 1 0.2 0.15 0.15
453 1 0.3 0.1 0.1
454 1 0.35 0.15 0.1
455 1 0.35 0.1 0.15
456 1 0.3 0.15 0.15
457 1 0.4 0.1 0.1
458 1 0.45 0.15 0.1
459 1 0.45 0.1 0.15
460 1 0.4 0.15 0.15
461 1 0.5 0.1 0.1
464 1 0.5 0.15 0.15
462 1 0.55 0.15 0.1
463 1 0.55 0.1 0.15
465 1 0.6 0.1 0.1
468 1 0.6 0.15 0.15
466 1 0.65 0.15 0.1
467 1 0.65 0.1 0.15
469 1 0.7 0.1 0.1
472 1 0.7 0.15 0.15
470 1 0.75 0.15 0.1
471 1 0.75 0.1 0.15
473 1 0.8 0.1 0.1
476 1 0.8 0.15 0.15
474 1 0.85 0.15 0.1
475 1 0.85 0.1 0.15
477 1 0.9 0.1 0.1
480 1 0.9 0.15 0.15
478 1 0.95 0.15 0.1
479 1 0.95 0.1 0.15
481 1 0 0.2 0.1
482 1 0.05 0.25 0.1
483 1 0.05 0.2 0.15
484 1 0 0.25 0.15
485 1 0.1 0.2 0.1
486 1 0.15 0.25 0.1
487 1 0.15 0.2 0.15
488 1 0.1 0.25 0.15
489 1 0.2 0.2 0.1
490 1 0.25 0.25 0.1
491 1 0.25 0.2 0.15
492 1 0.2 0.25 0.15
493 1 0.3 0.2 0.1
494 1 0.35 0.25 0.1
495 1 0.35 0.2 0.15
496 1 0.3 0.25 0.15
497 1 0.4 0.2 0.1
498 1 0.45 0.25 0.1
499 1 0.45 0.2 0.15
500 1 0.4 0.25 0.15
501 1 0.5 0.2 0.1
504 1 0.5 0.25 0.15
502 1 0.55 0.25 0.1
503 1 0.55 0.2 0.15
505 1 0.6 0.2 0.1
508 1 0.6 0.25 0.15
506 1 0.65 0.25 0.1
507 1 0.65 0.2 0.15
509 1 0.7 0.2 0.1
512 1 0.7 0.25 0.15
510 1 0.75 0.25 0.1
511 1 0.75 0.2 0.15
513 1 0.8 0.2 0.1
516 1 0.8 0.25 0.15
514 1 0.85 0.25 0.1
515 1 0.85 0.2 0.15
517 1 0.9 0.2 0.1
520 1 0.9 0.25 0.15
518 1 0.95 0.25 0.1
519 1 0.95 0.2 0.15
521 1 0 0.3 0.1
522 1 0.05 0.35 0.1
523 1 0.05 0.3 0.15
524 1 0 0.35 0.15
525 1 0.1 0.3 0.1
526 1 0.15 0.35 0.1
527 1 0.15 0.3 0.15
528 1 0.1 0.35 0.15
529 1 0.2 0.3 0.1
530 1 0.25 0.35 0.1
531 1 0.25 0.3 0.15
532 1 0.2 0.35 0.15
533 1 0.3 0.3 0.1
534 1 0.35 0.35 0.1
535 1 0.35 0.3 0.15
536 1 0.3 0.35 0.15
537 1 0.4 0.3 0.1
538 1 0.45 0.35 0.1
539 1 0.45 0.3 0.15
540 1 0.4 0.35 0.15
541 1 0.5 0.3 0.1
544 1 0.5 0.35 0.15
542 1 0.55 0.35 0.1
543 1 0.55 0.3 0.15
545 1 0.6 0.3 0.1
548 1 0.6 0.35 0.15
546 1 0.65 0.35 0.1
547 1 0.65 0.3 0.15
549 1 0.7 0.3 0.1
552 1 0.7 0.35 0.15
550 1 0.75 0.35 0.1
551 1 0.75 0.3 0.15
553 1 0.8 0.3 0.1
556 1 0.8 0.35 0.15
554 1 0.85 0.35 0.1
555 1 0.85 0.3 0.15
557 1 0.9 0.3 0.1
560 1 0.9 0.35 0.15
558 1 0.95 0.35 0.1
559 1 0.95 0.3 0.15
561 1 0 0.4 0.1
562 1 0.05 0.45 0.1
563 1 0.05 0.4 0.15
564 1 0 0.45 0.15
565 1 0.1 0.4 0.1
566 1 0.15 0.45 0.1
567 1 0.15 0.4 0.15
568 1 0.1 0.45 0.15
569 1 0.2 0.4 0.1
570 1 0.25 0.45 0.1
571 1 0.25 0.4 0.15
572 1 0.2 0.45 0.15
573 1 0.3 0.4 0.1
574 1 0.35 0.45 0.1
575 1 0.35 0.4 0.15
576 1 0.3 0.45 0.15
577 1 0.4 0.4 0.1
578 1 0.45 0.45 0.1
579 1 0.45 0.4 0.15
580 1 0.4 0.45 0.15
581 1 0.5 0.4 0.1
584 1 0.5 0.45 0.15
582 1 0.55 0.45 0.1
583 1 0.55 0.4 0.15
585 1 0.6 0.4 0.1
588 1 0.6 0.45 0.15
586 1 0.65 0.45 0.1
587 1 0.65 0.4 0.15
589 1 0.7 0.4 0.1
592 1 0.7 0.45 0.15
590 1 0.75 0.45 0.1
591 1 0.75 0.4 0.15
593 1 0.8 0.4 0.1
596 1 0.8 0.45 0.15
594 1 0.85 0.45 0.1
595 1 0.85 0.4 0.15
597 1 0.9 0.4 0.1
600 1 0.9 0.45 0.15
598 1 0.95 0.45 0.1
599 1 0.95 0.4 0.15
601 1 0 0.5 0.1
603 1 0.05 0.5 0.15
605 1 0.1 0.5 0.1
607 1 0.15 0.5 0.15
609 1 0.2 0.5 0.1
611 1 0.25 0.5 0.15
613 1 0.3 0.5 0.1
615 1 0.35 0.5 0.15
617 1 0.4 0.5 0.1
619 1 0.45 0.5 0.15
621 1 0.5 0.5 0.1
623 1 0.55 0.5 0.15
625 1 0.6 0.5 0.1
627 1 0.65 0.5 0.15
629 1 0.7 0.5 0.1
631 1 0.75 0.5 0.15
633 1 0.8 0.5 0.1
635 1 0.85 0.5 0.15
637 1 0.9 0.5 0.1
639 1 0.95 0.5 0.15
602 1 0.05 0.55 0.1
604 1 0 0.55 0.15
641 1 0 0.6 0.1
643 1 0.05 0.6 0.15
606 1 0.15 0.55 0.1
608 1 0.1 0.55 0.15
645 1 0.1 0.6 0.1
647 1 0.15 0.6 0.15
610 1 0.25 0.55 0.1
612 1 0.2 0.55 0.15
649 1 0.2 0.6 0.1
651 1 0.25 0.6 0.15
614 1 0.35 0.55 0.1
616 1 0.3 0.55 0.15
653 1 0.3 0.6 0.1
655 1 0.35 0.6 0.15
618 1 0.45 0.55 0.1
620 1 0.4 0.55 0.15
657 1 0.4 0.6 0.1
659 1 0.45 0.6 0.15
624 1 0.5 0.55 0.15
661 1 0.5 0.6 0.1
622 1 0.55 0.55 0.1
628 1 0.6 0.55 0.15
663 1 0.55 0.6 0.15
665 1 0.6 0.6 0.1
626 1 0.65 0.55 0.1
632 1 0.7 0.55 0.15
667 1 0.65 0.6 0.15
669 1 0.7 0.6 0.1
630 1 0.75 0.55 0.1
636 1 0.8 0.55 0.15
671 1 0.75 0.6 0.15
673 1 0.8 0.6 0.1
634 1 0.85 0.55 0.1
640 1 0.9 0.55 0.15
675 1 0.85 0.6 0.15
677 1 0.9 0.6 0.1
638 1 0.95 0.55 0.1
679 1 0.95 0.6 0.15
642 1 0.05 0.65 0.1
644 1 0 0.65 0.15
681 1 0 0.7 0.1
683 1 0.05 0.7 0.15
646 1 0.15 0.65 0.1
648 1 0.1 0.65 0.15
685 1 0.1 0.7 0.1
687 1 0.15 0.7 0.15
650 1 0.25 0.65 0.1
652 1 0.2 0.65 0.15
689 1 0.2 0.7 0.1
691 1 0.25 0.7 0.15
654 1 0.35 0.65 0.1
656 1 0.3 0.65 0.15
693 1 0.3 0.7 0.1
695 1 0.35 0.7 0.15
658 1 0.45 0.65 0.1
660 1 0.4 0.65 0.15
697 1 0.4 0.7 0.1
699 1 0.45 0.7 0.15
664 1 0.5 0.65 0.15
701 1 0.5 0.7 0.1
662 1 0.55 0.65 0.1
668 1 0.6 0.65 0.15
703 1 0.55 0.7 0.15
705 1 0.6 0.7 0.1
666 1 0.65 0.65 0.1
672 1 0.7 0.65 0.15
707 1 0.65 0.7 0.15
709 1 0.7 0.7 0.1
670 1 0.75 0.65 0.1
676 1 0.8 0.65 0.15
711 1 0.75 0.7 0.15
713 1 0.8 0.7 0.1
674 1 0.85 0.65 0.1
680 1 0.9 0.65 0.15
715 1 0.85 0.7 0.15
717 1 0.9 0.7 0.1
678 1 0.95 0.65 0.1
719 1 0.95 0.7 0.15
682 1 0.05 0.75 0.1
684 1 0 0.75 0.15
721 1 0 0.8 0.1
723 1 0.05 0.8 0.15
686 1 0.15 0.75 0.1
688 1 0.1 0.75 0.15
725 1 0.1 0.8 0.1
727 1 0.15 0.8 0.15
690 1 0.25 0.75 0.1
692 1 0.2 0.75 0.15
729 1 0.2 0.8 0.1
731 1 0.25 0.8 0.15
694 1 0.35 0.75 0.1
696 1 0.3 0.75 0.15
733 1 0.3 0.8 0.1
735 1 0.35 0.8 0.15
698 1 0.45 0.75 0.1
700 1 0.4 0.75 0.15
737 1 0.4 0.8 0.1
739 1 0.45 0.8 0.15
704 1 0.5 0.75 0.15
741 1 0.5 0.8 0.1
702 1 0.55 0.75 0.1
708 1 0.6 0.75 0.15
743 1 0.55 0.8 0.15
745 1 0.6 0.8 0.1
706 1 0.65 0.75 0.1
712 1 0.7 0.75 0.15
747 1 0.65 0.8 0.15
749 1 0.7 0.8 0.1
710 1 0.75 0.75 0.1
716 1 0.8 0.75 0.15
751 1 0.75 0.8 0.15
753 1 0.8 0.8 0.1
714 1 0.85 0.75 0.1
720 1 0.9 0.75 0.15
755 1 0.85 0.8 0.15
757 1 0.9 0.8 0.1
718 1 0.95 0.75 0.1
759 1 0.95 0.8 0.15
722 1 0.05 0.85 0.1
724 1 0 0.85 0.15
761 1 0 0.9 0.1
763 1 0.05 0.9 0.15
726 1 0.15 0.85 0.1
728 1 0.1 0.85 0.15
765 1 0.1 0.9 0.1
767 1 0.15 0.9 0.15
730 1 0.25 0.85 0.1
732 1 0.2 0.85 0.15
769 1 0.2 0.9 0.1
771 1 0.25 0.9 0.15
734 1 0.35 0.85 0.1
736 1 0.3 0.85 0.15
773 1 0.3 0.9 0.1
775 1 0.35 0.9 0.15
738 1 0.45 0.85 0.1
740 1 0.4 0.85 0.15
777 1 0.4 0.9 0.1
779 1 0.45 0.9 0.15
744 1 0.5 0.85 0.15
781 1 0.5 0.9 0.1
742 1 0.55 0.85 0.1
748 1 0.6 0.85 0.15
783 1 0.55 0.9 0.15
785 1 0.6 0.9 0.1
746 1 0.65 0.85 0.1
752 1 0.7 0.85 0.15
787 1 0.65 0.9 0.15
789 1 0.7 0.9 0.1
750 1 0.75 0.85 0.1
756 1 0.8 0.85 0.15
791 1 0.75 0.9 0.15
793 1 0.8 0.9 0.1
754 1 0.85 0.85 0.1
760 1 0.9 0.85 0.15
795 1 0.85 0.9 0.15
797 1 0.9 0.9 0.1
758 1 0.95 0.85 0.1
799 1 0.95 0.9 0.15
762 1 0.05 0.95 0.1
764 1 0 0.95 0.15
766 1 0.15 0.95 0.1
768 1 0.1 0.95 0.15
770 1 0.25 0.95 0.1
772 1 0.2 0.95 0.15
774 1 0.35 0.95 0.1
776 1 0.3 0.95 0.15
778 1 0.45 0.95 0.1
780 1 0.4 0.95 0.15
784 1 0.5 0.95 0.15
782 1 0.55 0.95 0.1
788 1 0.6 0.95 0.15
786 1 0.65 0.95 0.1
792 1 0.7 0.95 0.15
790 1 0.75 0.95 0.1
796 1 0.8 0.95 0.15
794 1 0.85 0.95 0.1
800 1 0.9 0.95 0.15
798 1 0.95 0.95 0.1
801 1 0 0 0.2
802 1 0.05 0.05 0.2
803 1 0.05 0 0.25
804 1 0 0.05 0.25
805 1 0.1 0 0.2
806 1 0.15 0.05 0.2
807 1 0.15 0 0.25
808 1 0.1 0.05 0.25
809 1 0.2 0 0.2
810 1 0.25 0.05 0.2
811 1 0.25 0 0.25
812 1 0.2 0.05 0.25
813 1 0.3 0 0.2
814 1 0.35 0.05 0.2
815 1 0.35 0 0.25
816 1 0.3 0.05 0.25
817 1 0.4 0 0.2
818 1 0.45 0.05 0.2
819 1 0.45 0 0.25
820 1 0.4 0.05 0.25
821 1 0.5 0 0.2
824 1 0.5 0.05 0.25
822 1 0.55 0.05 0.2
823 1 0.55 0 0.25
825 1 0.6 0 0.2
828 1 0.6 0.05 0.25
826 1 0.65 0.05 0.2
827 1 0.65 0 0.25
829 1 0.7 0 0.2
832 1 0.7 0.05 0.25
830 1 0.75 0.05 0.2
831 1 0.75 0 0.25
833 1 0.8 0 0.2
836 1 0.8 0.05 0.25
834 1 0.85 0.05 0.2
835 1 0.85 0 0.25
837 1 0.9 0 0.2
840 1 0.9 0.05 0.25
838 1 0.95 0.05 0.2
839 1 0.95 0 0.25
841 1 0 0.1 0.2
842 1 0.05 0.15 0.2
843 1 0.05 0.1 0.25
844 1 0 0.15 0.25
845 1 0.1 0.1 0.2
846 1 0.15 0.15 0.2
847 1 0.15 0.1 0.25
848 1 0.1 0.15 0.25
849 1 0.2 0.1 0.2
850 1 0.25 0.15 0.2
851 1 0.25 0.1 0.25
852 1 0.2 0.15 0.25
853 1 0.3 0.1 0.2
854 1 0.35 0.15 0.2
855 1 0.35 0.1 0.25
856 1 0.3 0.15 0.25
857 1 0.4 0.1 0.2
858 1 0.45 0.15 0.2
859 1 0.45 0.1 0.25
860 1 0.4 0.15 0.25
861 1 0.5 0.1 0.2
864 1 0.5 0.15 0.25
862 1 0.55 0.15 0.2
863 1 0.55 0.1 0.25
865 1 0.6 0.1 0.2
868 1 0.6 0.15 0.25
866 1 0.65 0.15 0.2
867 1 0.65 0.1 0.25
869 1 0.7 0.1 0.2
872 1 0.7 0.15 0.25
870 1 0.75 0.15 0.2
871 1 0.75 0.1 0.25
873 1 0.8 0.1 0.2
876 1 0.8 0.15 0.25
874 1 0.85 0.15 0.2
875 1 0.85 0.1 0.25
877 1 0.9 0.1 0.2
880 1 0.9 0.15 0.25
878 1 0.95 0.15 0.2
879 1 0.95 0.1 0.25
881 1 0 0.2 0.2
882 1 0.05 0.25 0.2
883 1 0.05 0.2 0.25
884 1 0 0.25 0.25
885 1 0.1 0.2 0.2
886 1 0.15 0.25 0.2
887 1 0.15 0.2 0.25
888 1 0.1 0.25 0.25
889 1 0.2 0.2 0.2
890 1 0.25 0.25 0.2
891 1 0.25 0.2 0.25
892 1 0.2 0.25 0.25
893 1 0.3 0.2 0.2
894 1 0.35 0.25 0.2
895 1 0.35 0.2 0.25
896 1 0.3 0.25 0.25
897 1 0.4 0.2 0.2
898 1 0.45 0.25 0.2
899 1 0.45 0.2 0.25
900 1 0.4 0.25 0.25
901 1 0.5 0.2 0.2
904 1 0.5 0.25 0.25
902 1 0.55 0.25 0.2
903 1 0.55 0.2 0.25
905 1 0.6 0.2 0.2
908 1 0.6 0.25 0.25
906 1 0.65 0.25 0.2
907 1 0.65 0.2 0.25
909 1 0.7 0.2 0.2
912 1 0.7 0.25 0.25
910 1 0.75 0.25 0.2
911 1 0.75 0.2 0.25
913 1 0.8 0.2 0.2
916 1 0.8 0.25 0.25
914 1 0.85 0.25 0.2
915 1 0.85 0.2 0.25
917 1 0.9 0.2 0.2
920 1 0.9 0.25 0.25
918 1 0.95 0.25 0.2
919 1 0.95 0.2 0.25
921 1 0 0.3 0.2
922 1 0.05 0.35 0.2
923 1 0.05 0.3 0.25
924 1 0 0.35 0.25
925 1 0.1 0.3 0.2
926 1 0.15 0.35 0.2
927 1 0.15 0.3 0.25
928 1 0.1 0.35 0.25
929 1 0.2 0.3 0.2
930 1 0.25 0.35 0.2
931 1 0.25 0.3 0.25
932 1 0.2 0.35 0.25
933 1 0.3 0.3 0.2
934 1 0.35 0.35 0.2
935 1 0.35 0.3 0.25
936 1 0.3 0.35 0.25
937 1 0.4 0.3 0.2
938 1 0.45 0.35 0.2
939 1 0.45 0.3 0.25
940 1 0.4 0.35 0.25
941 1 0.5 0.3 0.2
944 1 0.5 0.35 0.25
942 1 0.55 0.35 0.2
943 1 0.55 0.3 0.25
945 1 0.6 0.3 0.2
948 1 0.6 0.35 0.25
946 1 0.65 0.35 0.2
947 1 0.65 0.3 0.25
949 1 0.7 0.3 0.2
952 1 0.7 0.35 0.25
950 1 0.75 0.35 0.2
951 1 0.75 0.3 0.25
953 1 0.8 0.3 0.2
956 1 0.8 0.35 0.25
954 1 0.85 0.35 0.2
955 1 0.85 0.3 0.25
957 1 0.9 0.3 0.2
960 1 0.9 0.35 0.25
958 1 0.95 0.35 0.2
959 1 0.95 0.3 0.25
961 1 0 0.4 0.2
962 1 0.05 0.45 0.2
963 1 0.05 0.4 0.25
964 1 0 0.45 0.25
965 1 0.1 0.4 0.2
966 1 0.15 0.45 0.2
967 1 0.15 0.4 0.25
968 1 0.1 0.45 0.25
969 1 0.2 0.4 0.2
970 1 0.25 0.45 0.2
971 1 0.25 0.4 0.25
972 1 0.2 0.45 0.25
973 1 0.3 0.4 0.2
974 1 0.35 0.45 0.2
975 1 0.35 0.4 0.25
976 1 0.3 0.45 0.25
977 1 0.4 0.4 0.2
978 1 0.45 0.45 0.2
979 1 0.45 0.4 0.25
980 1 0.4 0.45 0.25
981 1 0.5 0.4 0.2
984 1 0.5 0.45 0.25
982 1 0.55 0.45 0.2
983 1 0.55 0.4 0.25
985 1 0.6 0.4 0.2
988 1 0.6 0.45 0.25
986 1 0.65 0.45 0.2
987 1 0.65 0.4 0.25
989 1 0.7 0.4 0.2
992 1 0.7 0.45 0.25
990 1 0.75 0.45 0.2
991 1 0.75 0.4 0.25
993 1 0.8 0.4 0.2
996 1 0.8 0.45 0.25
994 1 0.85 0.45 0.2
995 1 0.85 0.4 0.25
997 1 0.9 0.4 0.2
1000 1 0.9 0.45 0.25
998 1 0.95 0.45 0.2
999 1 0.95 0.4 0.25
1001 1 0 0.5 0.2
1003 1 0.05 0.5 0.25
1005 1 0.1 0.5 0.2
1007 1 0.15 0.5 0.25
1009 1 0.2 0.5 0.2
1011 1 0.25 0.5 0.25
1013 1 0.3 0.5 0.2
1015 1 0.35 0.5 0.25
1017 1 0.4 0.5 0.2
1019 1 0.45 0.5 0.25
1021 1 0.5 0.5 0.2
1023 1 0.55 0.5 0.25
1025 1 0.6 0.5 0.2
1027 1 0.65 0.5 0.25
1029 1 0.7 0.5 0.2
1031 1 0.75 0.5 0.25
1033 1 0.8 0.5 0.2
1035 1 0.85 0.5 0.25
1037 1 0.9 0.5 0.2
1039 1 0.95 0.5 0.25
1002 1 0.05 0.55 0.2
1004 1 0 0.55 0.25
1041 1 0 0.6 0.2
1043 1 0.05 0.6 0.25
1006 1 0.15 0.55 0.2
1008 1 0.1 0.55 0.25
1045 1 0.1 0.6 0.2
1047 1 0.15 0.6 0.25
1010 1 0.25 0.55 0.2
1012 1 0.2 0.55 0.25
1049 1 0.2 0.6 0.2
1051 1 0.25 0.6 0.25
1014 1 0.35 0.55 0.2
1016 1 0.3 0.55 0.25
1053 1 0.3 0.6 0.2
1055 1 0.35 0.6 0.25
1018 1 0.45 0.55 0.2
1020 1 0.4 0.55 0.25
1057 1 0.4 0.6 0.2
1059 1 0.45 0.6 0.25
1024 1 0.5 0.55 0.25
1061 1 0.5 0.6 0.2
1022 1 0.55 0.55 0.2
1028 1 0.6 0.55 0.25
1063 1 0.55 0.6 0.25
1065 1 0.6 0.6 0.2
1026 1 0.65 0.55 0.2
1032 1 0.7 0.55 0.25
1067 1 0.65 0.6 0.25
1069 1 0.7 0.6 0.2
1030 1 0.75 0.55 0.2
1036 1 0.8 0.55 0.25
1071 1 0.75 0.6 0.25
1073 1 0.8 0.6 0.2
1034 1 0.85 0.55 0.2
1040 1 0.9 0.55 0.25
1075 1 0.85 0.6 0.25
1077 1 0.9 0.6 0.2
1038 1 0.95 0.55 0.2
1079 1 0.95 0.6 0.25
1042 1 0.05 0.65 0.2
1044 1 0 0.65 0.25
1081 1 0 0.7 0.2
1083 1 0.05 0.7 0.25
1046 1 0.15 0.65 0.2
1048 1 0.1 0.65 0.25
1085 1 0.1 0.7 0.2
1087 1 0.15 0.7 0.25
1050 1 0.25 0.65 0.2
1052 1 0.2 0.65 0.25
1089 1 0.2 0.7 0.2
1091 1 0.25 0.7 0.25
1054 1 0.35 0.65 0.2
1056 1 0.3 0.65 0.25
1093 1 0.3 0.7 0.2
1095 1 0.35 0.7 0.25
1058 1 0.45 0.65 0.2
1060 1 0.4 0.65 0.25
1097 1 0.4 0.7 0.2
1099 1 0.45 0.7 0.25
1064 1 0.5 0.65 0.25
1101 1 0.5 0.7 0.2
1062 1 0.55 0.65 0.2
1068 1 0.6 0.65 0.25
1103 1 0.55 0.7 0.25
1105 1 0.6 0.7 0.2
1066 1 0.65 0.65 0.2
1072 1 0.7 0.65 0.25
1107 1 0.65 0.7 0.25
1109 1 0.7 0.7 0.2
1070 1 0.75 0.65 0.2
1076 1 0.8 0.65 0.25
1111 1 0.75 0.7 0.25
1113 1 0.8 0.7 0.2
1074 1 0.85 0.65 0.2
1080 1 0.9 0.65 0.25
1115 1 0.85 0.7 0.25
1117 1 0.9 0.7 0.2
1078 1 0.95 0.65 0.2
1119 1 0.95 0.7 0.25
1082 1 0.05 0.75 0.2
1084 1 0 0.75 0.25
1121 1 0 0.8 0.2
1123 1 0.05 0.8 0.25
1086 1 0.15 0.75 0.2
1088 1 0.1 0.75 0.25
1125 1 0.1 0.8 0.2
1127 1 0.15 0.8 0.25
1090 1 0.25 0.75 0.2
1092 1 0.2 0.75 0.25
1129 1 0.2 0.8 0.2
1131 1 0.25 0.8 0.25
1094 1 0.35 0.75 0.2
1096 1 0.3 0.75 0.25
1133 1 0.3 0.8 0.2
1135 1 0.35 0.8 0.25
1098 1 0.45 0.75 0.2
1100 1 0.4 0.75 0.25
1137 1 0.4 0.8 0.2
1139 1 0.45 0.8 0.25
1104 1 0.5 0.75 0.25
1141 1 0.5 0.8 0.2
1102 1 0.55 0.75 0.2
1108 1 0.6 0.75 0.25
1143 1 0.55 0.8 0.25
1145 1 0.6 0.8 0.2
1106 1 0.65 0.75 0.2
1112 1 0.7 0.75 0.25
1147 1 0.65 0.8 0.25
1149 1 0.7 0.8 0.2
1110 1 0.75 0.75 0.2
1116 1 0.8 0.75 0.25
1151 1 0.75 0.8 0.25
1153 1 0.8 0.8 0.2
1114 1 0.85 0.75 0.2
1120 1 0.9 0.75 0.25
1155 1 0.85 0.8 0.25
1157 1 0.9 0.8 0.2
1118 1 0.95 0.75 0.2
1159 1 0.95 0.8 0.25
1122 1 0.05 0.85 0.2
1124 1 0 0.85 0.25
1161 1 0 0.9 0.2
1163 1 0.05 0.9 0.25
1126 1 0.15 0.85 0.2
1128 1 0.1 0.85 0.25
1165 1 0.1 0.9 0.2
1167 1 0.15 0.9 0.25
1130 1 0.25 0.85 0.2
1132 1 0.2 0.85 0.25
1169 1 0.2 0.9 0.2
1171 1 0.25 0.9 0.25
1134 1 0.35 0.85 0.2
1136 1 0.3 0.85 0.25
1173 1 0.3 0.9 0.2
1175 1 0.35 0.9 0.25
1138 1 0.45 0.85 0.2
1140 1 0.4 0.85 0.25
1177 1 0.4 0.9 0.2
1179 1 0.45 0.9 0.25
1144 1 0.5 0.85 0.25
1181 1 0.5 0.9 0.2
1142 1 0.55 0.85 0.2
1148 1 0.6 0.85 0.25
1183 1 0.55 0.9 0.25
1185 1 0.6 0.9 0.2
1146 1 0.65 0.85 0.2
1152 1 0.7 0.85 0.25
1187 1 0.65 0.9 0.25
1189 1 0.7 0.9 0.2
1150 1 0.75 0.85 0.2
1156 1 0.8 0.85 0.25
1191 1 0.75 0.9 0.25
1193 1 0.8 0.9 0.2
1154 1 0.85 0.85 0.2
1160 1 0.9 0.85 0.25
1195 1 0.85 0.9 0.25
1197 1 0.9 0.9 0.2
1158 1 0.95 0.85 0.2
1199 1 0.95 0.9 0.25
1162 1 0.05 0.95 0.2
1164 1 0 0.95 0.25
1166 1 0.15 0.95 0.2
1168 1 0.1 0.95 0.25
1170 1 0.25 0.95 0.2
1172 1 0.2 0.95 0.25
1174 1 0.35 0.95 0.2
1176 1 0.3 0.95 0.25
1178 1 0.45 0.95 0.2
1180 1 0.4 0.95 0.25
1184 1 0.5 0.95 0.25
1182 1 0.55 0.95 0.2
1188 1 0.6 0.95 0.25
1186 1 0.65 0.95 0.2
1192 1 0.7 0.95 0.25
1190 1 0.75 0.95 0.2
1196 1 0.8 0.95 0.25
1194 1 0.85 0.95 0.2
1200 1 0.9 0.95 0.25
1198 1 0.95 0.95 0.2
1201 1 0 0 0.3
1202 1 0.05 0.05 0.3
1203 1 0.05 0 0.35
1204 1 0 0.05 0.35
1205 1 0.1 0 0.3
1206 1 0.15 0.05 0.3
1207 1 0.15 0 0.35
1208 1 0.1 0.05 0.35
1209 1 0.2 0 0.3
1210 1 0.25 0.05 0.3
1211 1 0.25 0 0.35
1212 1 0.2 0.05 0.35
1213 1 0.3 0 0.3
1214 1 0.35 0.05 0.3
1215 1 0.35 0 0.35
1216 1 0.3 0.05 0.35
1217 1 0.4 0 0.3
1218 1 0.45 0.05 0.3
1219 1 0.45 0 0.35
1220 1 0.4 0.05 0.35
1221 1 0.5 0 0.3
1224 1 0.5 0.05 0.35
1222 1 0.55 0.05 0.3
1223 1 0.55 0 0.35
1225 1 0.6 0 0.3
1228 1 0.6 0.05 0.35
1226 1 0.65 0.05 0.3
1227 1 0.65 0 0.35
1229 1 0.7 0 0.3
1232 1 0.7 0.05 0.35
1230 1 0.75 0.05 0.3
1231 1 0.75 0 0.35
1233 1 0.8 0 0.3
1236 1 0.8 0.05 0.35
1234 1 0.85 0.05 0.3
1235 1 0.85 0 0.35
1237 1 0.9 0 0.3
1240 1 0.9 0.05 0.35
1238 1 0.95 0.05 0.3
1239 1 0.95 0 0.35
1241 1 0 0.1 0.3
1242 1 0.05 0.15 0.3
1243 1 0.05 0.1 0.35
1244 1 0 0.15 0.35
1245 1 0.1 0.1 0.3
1246 1 0.15 0.15 0.3
1247 1 0.15 0.1 0.35
1248 1 0.1 0.15 0.35
1249 1 0.2 0.1 0.3
1250 1 0.25 0.15 0.3
1251 1 0.25 0.1 0.35
1252 1 0.2 0.15 0.35
1253 1 0.3 0.1 0.3
1254 1 0.35 0.15 0.3
1255 1 0.35 0.1 0.35
1256 1 0.3 0.15 0.35
1257 1 0.4 0.1 0.3
1258 1 0.45 0.15 0.3
1259 1 0.45 0.1 0.35
1260 1 0.4 0.15 0.35
1261 1 0.5 0.1 0.3
1264 1 0.5 0.15 0.35
1262 1 0.55 0.15 0.3
1263 1 0.55 0.1 0.35
1265 1 0.6 0.1 0.3
1268 1 0.6 0.15 0.35
1266 1 0.65 0.15 0.3
1267 1 0.65 0.1 0.35
1269 1 0.7 0.1 0.3
1272 1 0.7 0.15 0.35
1270 1 0.75 0.15 0.3
1271 1 0.75 0.1 0.35
1273 1 0.8 0.1 0.3
1276 1 0.8 0.15 0.35
1274 1 0.85 0.15 0.3
1275 1 0.85 0.1 0.35
1277 1 0.9 0.1 0.3
1280 1 0.9 0.15 0.35
1278 1 0.95 0.15 0.3
1279 1 0.95 0.1 0.35
1281 1 0 0.2 0.3
1282 1 0.05 0.25 0.3
1283 1 0.05 0.2 0.35
1284 1 0 0.25 0.35
1285 1 0.1 0.2 0.3
1286 1 0.15 0.25 0.3
1287 1 0.15 0.2 0.35
1288 1 0.1 0.25 0.35
1289 1 0.2 0.2 0.3
1290 1 0.25 0.25 0.3
1291 1 0.25 0.2 0.35
1292 1 0.2 0.25 0.35
1293 1 0.3 0.2 0.3
1294 1 0.35 0.25 0.3
1295 1 0.35 0.2 0.35
1296 1 0.3 0.25 0.35
1297 1 0.4 0.2 0.3
1298 1 0.45 0.25 0.3
1299 1 0.45 0.2 0.35
1300 1 0.4 0.25 0.35
1301 1 0.5 0.2 0.3
1304 1 0.5 0.25 0.35
1302 1 0.55 0.25 0.3
1303 1 0.55 0.2 0.35
1305 1 0.6 0.2 0.3
1308 1 0.6 0.25 0.35
1306 1 0.65 0.25 0.3
1307 1 0.65 0.2 0.35
1309 1 0.7 0.2 0.3
1312 1 0.7 0.25 0.35
1310 1 0.75 0.25 0.3
1311 1 0.75 0.2 0.35
1313 1 0.8 0.2 0.3
1316 1 0.8 0.25 0.35
1314 1 0.85 0.25 0.3
1315 1 0.85 0.2 0.35
1317 1 0.9 0.2 0.3
1320 1 0.9 0.25 0.35
1318 1 0.95 0.25 0.3
1319 1 0.95 0.2 0.35
1321 1 0 0.3 0.3
1322 1 0.05 0.35 0.3
1323 1 0.05 0.3 0.35
1324 1 0 0.35 0.35
1325 1 0.1 0.3 0.3
1326 1 0.15 0.35 0.3
1327 1 0.15 0.3 0.35
1328 1 0.1 0.35 0.35
1329 1 0.2 0.3 0.3
1330 1 0.25 0.35 0.3
1331 1 0.25 0.3 0.35
1332 1 0.2 0.35 0.35
1333 1 0.3 0.3 0.3
1334 1 0.35 0.35 0.3
1335 1 0.35 0.3 0.35
1336 1 0.3 0.35 0.35
1337 1 0.4 0.3 0.3
1338 1 0.45 0.35 0.3
1339 1 0.45 0.3 0.35
1340 1 0.4 0.35 0.35
1341 1 0.5 0.3 0.3
1344 1 0.5 0.35 0.35
1342 1 0.55 0.35 0.3
1343 1 0.55 0.3 0.35
1345 1 0.6 0.3 0.3
1348 1 0.6 0.35 0.35
1346 1 0.65 0.35 0.3
1347 1 0.65 0.3 0.35
1349 1 0.7 0.3 0.3
1352 1 0.7 0.35 0.35
1350 1 0.75 0.35 0.3
1351 1 0.75 0.3 0.35
1353 1 0.8 0.3 0.3
1356 1 0.8 0.35 0.35
1354 1 0.85 0.35 0.3
1355 1 0.85 0.3 0.35
1357 1 0.9 0.3 0.3
1360 1 0.9 0.35 0.35
1358 1 0.95 0.35 0.3
1359 1 0.95 0.3 0.35
1361 1 0 0.4 0.3
1362 1 0.05 0.45 0.3
1363 1 0.05 0.4 0.35
1364 1 0 0.45 0.35
1365 1 0.1 0.4 0.3
1366 1 0.15 0.45 0.3
1367 1 0.15 0.4 0.35
1368 1 0.1 0.45 0.35
1369 1 0.2 0.4 0.3
1370 1 0.25 0.45 0.3
1371 1 0.25 0.4 0.35
1372 1 0.2 0.45 0.35
1373 1 0.3 0.4 0.3
1374 1 0.35 0.45 0.3
1375 1 0.35 0.4 0.35
1376 1 0.3 0.45 0.35
1377 1 0.4 0.4 0.3
1378 1 0.45 0.45 0.3
1379 1 0.45 0.4 0.35
1380 1 0.4 0.45 0.35
1381 1 0.5 0.4 0.3
1384 1 0.5 0.45 0.35
1382 1 0.55 0.45 0.3
1383 1 0.55 0.4 0.35
1385 1 0.6 0.4 0.3
1388 1 0.6 0.45 0.35
1386 1 0.65 0.45 0.3
1387 1 0.65 0.4 0.35
1389 1 0.7 0.4 0.3
1392 1 0.7 0.45 0.35
1390 1 0.75 0.45 0.3
1391 1 0.75 0.4 0.35
1393 1 0.8 0.4 0.3
1396 1 0.8 0.45 0.35
1394 1 0.85 0.45 0.3
1395 1 0.85 0.4 0.35
1397 1 0.9 0.4 0.3
1400 1 0.9 0.45 0.35
1398 1 0.95 0.45 0.3
1399 1 0.95 0.4 0.35
1401 1 0 0.5 0.3
1403 1 0.05 0.5 0.35
1405 1 0.1 0.5 0.3
1407 1 0.15 0.5 0.35
1409 1 0.2 0.5 0.3
1411 1 0.25 0.5 0.35
1413 1 0.3 0.5 0.3
1415 1 0.35 0.5 0.35
1417 1 0.4 0.5 0.3
1419 1 0.45 0.5 0.35
1421 1 0.5 0.5 0.3
1423 1 0.55 0.5 0.35
1425 1 0.6 0.5 0.3
1427 1 0.65 0.5 0.35
1429 1 0.7 0.5 0.3
1431 1 0.75 0.5 0.35
1433 1 0.8 0.5 0.3
1435 1 0.85 0.5 0.35
1437 1 0.9 0.5 0.3
1439 1 0.95 0.5 0.35
1402 1 0.05 0.55 0.3
1404 1 0 0.55 0.35
1441 1 0 0.6 0.3
1443 1 0.05 0.6 0.35
1406 1 0.15 0.55 0.3
1408 1 0.1 0.55 0.35
1445 1 0.1 0.6 0.3
1447 1 0.15 0.6 0.35
1410 1 0.25 0.55 0.3
1412 1 0.2 0.55 0.35
1449 1 0.2 0.6 0.3
1451 1 0.25 0.6 0.35
1414 1 0.35 0.55 0.3
1416 1 0.3 0.55 0.35
1453 1 0.3 0.6 0.3
1455 1 0.35 0.6 0.35
1418 1 0.45 0.55 0.3
1420 1 0.4 0.55 0.35
1457 1 0.4 0.6 0.3
1459 1 0.45 0.6 0.35
1424 1 0.5 0.55 0.35
1461 1 0.5 0.6 0.3
1422 1 0.55 0.55 0.3
1428 1 0.6 0.55 0.35
1463 1 0.55 0.6 0.35
1465 1 0.6 0.6 0.3
1426 1 0.65 0.55 0.3
1432 1 0.7 0.55 0.35
1467 1 0.65 0.6 0.35
1469 1 0.7 0.6 0.3
1430 1 0.75 0.55 0.3
1436 1 0.8 0.55 0.35
1471 1 0.75 0.6 0.35
1473 1 0.8 0.6 0.3
1434 1 0.85 0.55 0.3
1440 1 0.9 0.55 0.35
1475 1 0.85 0.6 0.35
1477 1 0.9 0.6 0.3
1438 1 0.95 0.55 0.3
1479 1 0.95 0.6 0.35
1442 1 0.05 0.65 0.3
1444 1 0 0.65 0.35
1481 1 0 0.7 0.3
1483 1 0.05 0.7 0.35
1446 1 0.15 0.65 0.3
1448 1 0.1 0.65 0.35
1485 1 0.1 0.7 0.3
1487 1 0.15 0.7 0.35
1450 1 0.25 0.65 0.3
1452 1 0.2 0.65 0.35
1489 1 0.2 0.7 0.3
1491 1 0.25 0.7 0.35
1454 1 0.35 0.65 0.3
1456 1 0.3 0.65 0.35
1493 1 0.3 0.7 0.3
1495 1 0.35 0.7 0.35
1458 1 0.45 0.65 0.3
1460 1 0.4 0.65 0.35
1497 1 0.4 0.7 0.3
1499 1 0.45 0.7 0.35
1464 1 0.5 0.65 0.35
1501 1 0.5 0.7 0.3
1462 1 0.55 0.65 0.3
1468 1 0.6 0.65 0.35
1503 1 0.55 0.7 0.35
1505 1 0.6 0.7 0.3
1466 1 0.65 0.65 0.3
1472 1 0.7 0.65 0.35
1507 1 0.65 0.7 0.35
1509 1 0.7 0.7 0.3
1470 1 0.75 0.65 0.3
1476 1 0.8 0.65 0.35
1511 1 0.75 0.7 0.35
1513 1 0.8 0.7 0.3
1474 1 0.85 0.65 0.3
1480 1 0.9 0.65 0.35
1515 1 0.85 0.7 0.35
1517 1 0.9 0.7 0.3
1478 1 0.95 0.65 0.3
1519 1 0.95 0.7 0.35
1482 1 0.05 0.75 0.3
1484 1 0 0.75 0.35
1521 1 0 0.8 0.3
1523 1 0.05 0.8 0.35
1486 1 0.15 0.75 0.3
1488 1 0.1 0.75 0.35
1525 1 0.1 0.8 0.3
1527 1 0.15 0.8 0.35
1490 1 0.25 0.75 0.3
1492 1 0.2 0.75 0.35
1529 1 0.2 0.8 0.3
1531 1 0.25 0.8 0.35
1494 1 0.35 0.75 0.3
1496 1 0.3 0.75 0.35
1533 1 0.3 0.8 0.3
1535 1 0.35 0.8 0.35
1498 1 0.45 0.75 0.3
1500 1 0.4 0.75 0.35
1537 1 0.4 0.8 0.3
1539 1 0.45 0.8 0.35
1504 1 0.5 0.75 0.35
1541 1 0.5 0.8 0.3
1502 1 0.55 0.75 0.3
1508 1 0.6 0.75 0.35
1543 1 0.55 0.8 0.35
1545 1 0.6 0.8 0.3
1506 1 0.65 0.75 0.3
1512 1 0.7 0.75 0.35
1547 1 0.65 0.8 0.35
1549 1 0.7 0.8 0.3
1510 1 0.75 0.75 0.3
1516 1 0.8 0.75 0.35
1551 1 0.75 0.8 0.35
1553 1 0.8 0.8 0.3
1514 1 0.85 0.75 0.3
1520 1 0.9 0.75 0.35
1555 1 0.85 0.8 0.35
1557 1 0.9 0.8 0.3
1518 1 0.95 0.75 0.3
1559 1 0.95 0.8 0.35
1522 1 0.05 0.85 0.3