LAMMPS data file via write_data, version 11 Apr 2017, timestep = 111

400 atoms
1 atom types

-7.2704599999999999e+00 7.2704599999999999e+00 xlo xhi
-7.2704599999999999e+00 7.2704599999999999e+00 ylo yhi
-7.2704599999999999e+00 7.2704599999999999e+00 zlo zhi

Masses

1 1

Atoms # atomic

41 1 -2.1320334213480776e+00 -2.4219536851105889e+00 -4.1672476431089143e+00 0 0 0
302 1 -2.7798045439802612e+00 -2.7800569529833252e+00 -3.5091865270770382e+00 0 0 0
96 1 -9.1026570956529529e-01 -3.5580324965373431e+00 -3.7783267990721559e+00 0 0 0
164 1 -1.8948066989196652e+00 -3.2438378273301520e+00 -3.6964194980862670e+00 0 0 0
183 1 -2.1476095516207969e-01 -3.0381076040263100e+00 -4.3020623418050388e+00 0 0 0
207 1 -1.2138896994100972e+00 -2.8147532765254679e+00 -4.2870969553793215e+00 0 0 0
386 1 -5.3538476267719248e-01 -2.2483856742290498e+00 -4.7357263477705329e+00 0 0 0
2 1 1.2305279602171849e-01 -3.7269609572270879e+00 -3.7263151764538773e+00 0 0 0
148 1 4.3552984812467233e-01 -2.3519267307331884e+00 -4.6955322508981308e+00 0 0 0
228 1 7.9230607480077486e-01 -3.1059398693746849e+00 -4.1845104316248154e+00 0 0 0
328 1 1.7721096672884218e+00 -3.0600971716750816e+00 -3.9078444744866316e+00 0 0 0
108 1 2.0977469787577592e+00 -3.6418098445917568e+00 -3.1830763832489182e+00 0 0 0
129 1 2.6881088153359927e+00 -2.9100960771919526e+00 -3.4774148724827105e+00 0 0 0
329 1 2.3451147808948241e+00 -2.2675871379303807e+00 -4.1338189965198904e+00 0 0 0
137 1 -3.5860270023947147e+00 -2.1419885141096898e-01 -3.8541973295903813e+00 0 0 0
181 1 -2.9263604598203030e+00 -1.8938766672850909e+00 -3.9519028280899184e+00 0 0 0
232 1 -2.9679443564642454e+00 -8.9090577803680349e-01 -4.2586037122581075e+00 0 0 0
259 1 -1.3576470699994736e+00 -1.0756395484227388e+00 -4.9771884570031872e+00 0 0 0
279 1 -3.5996492962969882e+00 -1.2844702640744960e+00 -3.6280455829904090e+00 0 0 0
375 1 -2.1709725258003920e+00 -5.5969340236465182e-01 -4.7697283826571182e+00 0 0 0
389 1 -2.2468248318974395e+00 -1.4909673392068166e+00 -4.5273376261643445e+00 0 0 0
42 1 -1.2929247491834086e+00 -1.2357938727457969e-01 -5.1079484361537517e+00 0 0 0
141 1 -4.7580827960006000e-01 -6.7297001211600360e-01 -5.2050110138862156e+00 0 0 0
193 1 -1.4387447142600023e+00 -1.9702175270577558e+00 -4.6722136107210783e+00 0 0 0
318 1 5.1498352786615853e-01 -7.2433077545803159e-01 -5.1956186163636238e+00 0 0 0
74 1 1.4972651473979288e+00 -7.1537460881611492e-01 -5.0024479548560192e+00 0 0 0
93 1 1.4098048612871827e+00 -2.3557753408255300e+00 -4.4960200615471271e+00 0 0 0
100 1 2.6045203298325683e-03 -1.5231405901876953e+00 -5.0453955490512943e+00 0 0 0
178 1 9.9258572149011259e-01 -1.5646203731701545e+00 -4.9351250670422058e+00 0 0 0
351 1 1.9513302908966903e+00 -1.5245681260229427e+00 -4.6521944523657552e+00 0 0 0
61 1 3.2571280159236182e+00 -5.3181438420699112e-01 -4.1073548788834460e+00 0 0 0
160 1 2.4110609044501476e+00 -6.3724941939292346e-01 -4.6430298059226152e+00 0 0 0
161 1 2.8452511240539953e+00 -1.4114738993828830e+00 -4.2052945692927057e+00 0 0 0
238 1 1.9047813929098898e+00 2.0040337067986186e-01 -4.9107371404650255e+00 0 0 0
361 1 2.7625320141583929e+00 2.6318924952563416e-01 -4.4812371270368345e+00 0 0 0
87 1 -2.8081133137731085e+00 1.5312645211113103e+00 -4.1901337567768220e+00 0 0 0
188 1 -2.8654752973662858e+00 8.4280751080471908e-02 -4.4234901577507060e+00 0 0 0
296 1 -3.5093895728516027e+00 1.6996134822294282e+00 -3.5455896742227897e+00 0 0 0
316 1 -2.0576870401252476e+00 3.8742702046654126e-01 -4.8369972039462521e+00 0 0 0
373 1 -2.0228350455593107e+00 1.3136997819749745e+00 -4.6831931957288413e+00 0 0 0
130 1 -4.3097325039239193e-01 3.1954168939135696e-01 -5.2436731656875972e+00 0 0 0
150 1 -3.9753907120312781e-01 1.3724084025464833e+00 -5.0730489466711903e+00 0 0 0
304 1 -1.2290645219317669e+00 8.6649605438435751e-01 -5.0511162578802491e+00 0 0 0
245 1 5.7552756717863041e-01 1.7489518517928497e+00 -4.9387802438881696e+00 0 0 0
285 1 9.8909290617986667e-01 1.0499379425119020e-01 -5.1749022895358037e+00 0 0 0
358 1 3.7864909314373874e-01 8.3188180599103390e-01 -5.1899428887348815e+00 0 0 0
65 1 2.2028239452444307e+00 1.1167884158004144e+00 -4.6571149832839618e+00 0 0 0
112 1 1.5708588388228566e+00 1.9151541739538100e+00 -4.6524803234523082e+00 0 0 0
196 1 2.4928087947930089e+00 1.9696347629924151e+00 -4.2063540371901142e+00 0 0 0
339 1 1.3046889409563442e+00 1.0287265297106487e+00 -5.0015492466800291e+00 0 0 0
45 1 3.5280587633194549e+00 3.7092386089647944e-01 -3.8961211666664077e+00 0 0 0
63 1 -2.7973771883578618e+00 2.4133870753746804e+00 -3.7592994440647947e+00 0 0 0
201 1 -1.9575311128948734e+00 3.0412308617303476e+00 -3.8320622385201144e+00 0 0 0
350 1 -2.0322768872867290e+00 2.2074043519035103e+00 -4.3301397791922973e+00 0 0 0
86 1 -3.8330043012253695e-01 2.2827921814983947e+00 -4.7352546280748165e+00 0 0 0
98 1 -1.2276610225501634e+00 1.8322673884324812e+00 -4.7856832646833016e+00 0 0 0
167 1 -1.0681877513628599e+00 3.5264327249896956e+00 -3.7695406978752248e+00 0 0 0
295 1 -2.9171873126411441e-01 3.1396144695608461e+00 -4.2233886865785255e+00 0 0 0
340 1 -1.1820740386920541e+00 2.7246819205787274e+00 -4.3523946736394272e+00 0 0 0
10 1 1.3488686607358942e+00 2.7910738003289310e+00 -4.2615106566198140e+00 0 0 0
142 1 6.3410154396890894e-01 3.4082355269690310e+00 -3.9703162616694270e+00 0 0 0
219 1 1.5463013999802990e+00 3.5179943579457427e+00 -3.6083971881777748e+00 0 0 0
299 1 4.7305324333842247e-01 2.6265906641517414e+00 -4.5439213438720829e+00 0 0 0
332 1 2.1929754242312409e+00 2.8309600952117142e+00 -3.8664742774299099e+00 0 0 0
75 1 -2.1627021841042420e+00 -4.2118501506916077e+00 -2.3143827158857411e+00 0 0 0
246 1 -2.6390585225473311e+00 -4.3395480878736166e+00 -1.4093757461615100e+00 0 0 0
287 1 -3.0372924970714976e+00 -3.7554252899300273e+00 -2.1088531471796057e+00 0 0 0
43 1 -5.7189059599848890e-01 -4.1831595336314162e+00 -3.1488760301093648e+00 0 0 0
118 1 -8.0130191919186677e-01 -4.9428425013798458e+00 -1.6460910585403126e+00 0 0 0
162 1 -1.2079297228101287e+00 -4.5243203622602897e+00 -2.4219041684490863e+00 0 0 0
334 1 -1.5751876500628406e+00 -3.9505901647090678e+00 -3.1121357672826253e+00 0 0 0
176 1 -2.1392083679504773e-01 -4.6729630989483484e+00 -2.4229441739846078e+00 0 0 0
198 1 4.6963981064308213e-01 -4.2887755809578563e+00 -3.0270794222093280e+00 0 0 0
275 1 1.4614204309841043e+00 -4.2508132753342407e+00 -2.7550391356111721e+00 0 0 0
385 1 8.0435102976277084e-01 -4.7105901832476755e+00 -2.2263445408589053e+00 0 0 0
187 1 1.7095030236681696e+00 -4.6305721383288452e+00 -1.8490089292037930e+00 0 0 0
374 1 2.3447698068505627e+00 -4.1000797629996777e+00 -2.3397534502589070e+00 0 0 0
70 1 -4.0479706611494644e+00 -2.3817473058165017e+00 -2.3881044114442997e+00 0 0 0
159 1 -4.6184098459654983e+00 -1.6025769799745322e+00 -1.9734046952906414e+00 0 0 0
27 1 -2.5137143351039866e+00 -3.5608135655792643e+00 -2.9634362723732464e+00 0 0 0
134 1 -3.3456383992824148e+00 -3.0318562196443497e+00 -2.7189147316242330e+00 0 0 0
392 1 -3.5392188370721827e+00 -2.1953574459158784e+00 -3.2257760591080169e+00 0 0 0
263 1 1.1395103913267828e+00 -3.7450677765465978e+00 -3.5310212090172102e+00 0 0 0
22 1 2.9594886250936225e+00 -3.4261267697673974e+00 -2.6975806068645847e+00 0 0 0
35 1 3.1206464051318354e+00 -3.8321901276007888e+00 -1.8261429989114215e+00 0 0 0
255 1 3.2111647612799961e+00 -2.0955379840117034e+00 -3.6178193427033807e+00 0 0 0
200 1 3.5255688905898488e+00 -2.6496908686011906e+00 -2.8881325456679328e+00 0 0 0
289 1 4.2474822985077303e+00 -2.3544977173276656e+00 -2.0461380263966804e+00 0 0 0
64 1 -4.4598970728987295e+00 1.6461022340748263e-01 -2.8056062920237239e+00 0 0 0
105 1 -4.1700381949835119e+00 -1.5239853140461925e+00 -2.8400519280855838e+00 0 0 0
179 1 -4.6453401899517699e+00 -7.1386028731281492e-01 -2.3824254253170021e+00 0 0 0
315 1 -4.1407466448629320e+00 -6.3130924558098145e-01 -3.1993474613530339e+00 0 0 0
101 1 3.6783845714857675e+00 -1.2429373661061200e+00 -3.5635042403235890e+00 0 0 0
128 1 4.0426986932682105e+00 -1.8190526199259673e+00 -2.8470582522689587e+00 0 0 0
230 1 4.8844182977591606e+00 -5.4920702222070494e-01 -1.8837576771444826e+00 0 0 0
236 1 4.5878297518075328e+00 3.1055259159324704e-02 -2.5923600683242967e+00 0 0 0
276 1 4.0035841547910271e+00 -3.3775767000846074e-01 -3.4124184170966503e+00 0 0 0
393 1 4.4061315470564262e+00 -9.1844278354879738e-01 -2.7407279943800535e+00 0 0 0
139 1 -4.5913475788371363e+00 1.0113155258952762e+00 -2.3827542893045841e+00 0 0 0
222 1 -3.4016438048423256e+00 7.7338675979633698e-01 -3.9514759488624707e+00 0 0 0
298 1 -4.0555289443305371e+00 9.3933543664343511e-01 -3.2324929988899695e+00 0 0 0
133 1 4.1388503415206372e+00 6.0098419663104419e-01 -3.2062891297347198e+00 0 0 0
180 1 4.0184837016817303e+00 1.5237889935041289e+00 -3.0520888266804134e+00 0 0 0
265 1 4.5670990272665462e+00 1.0189040810539285e+00 -2.4250333237502888e+00 0 0 0
310 1 3.0263103858301319e+00 1.1429129061440346e+00 -4.1617777882240183e+00 0 0 0
360 1 4.9507112927820343e+00 4.4028158201503159e-01 -1.7536964321496720e+00 0 0 0
1 1 -3.3015218505216626e+00 3.2938744109059628e+00 -2.4515925171856225e+00 0 0 0
4 1 -3.9949327200129243e+00 2.6295978013712276e+00 -2.2174729629732624e+00 0 0 0
140 1 -3.5042392221161638e+00 3.6102417019835147e+00 -1.5646475746550195e+00 0 0 0
270 1 -4.1056566868245064e+00 1.8119142445752958e+00 -2.7634108795196597e+00 0 0 0
5 1 -1.8216109164361896e+00 3.7771143502445983e+00 -3.1935659463454842e+00 0 0 0
58 1 -2.5211088422193324e+00 3.8864924574527331e+00 -2.5177271687187361e+00 0 0 0
261 1 -2.6862445835705357e+00 3.2103696543540314e+00 -3.2055642710338157e+00 0 0 0
388 1 -3.4624641318983835e+00 2.5424008534659830e+00 -3.0490181592033601e+00 0 0 0
21 1 3.4045203784733311e+00 3.6246599244084252e+00 -1.7464714115494129e+00 0 0 0
69 1 2.9861437380350018e+00 2.7164671069343522e+00 -3.3875647262841411e+00 0 0 0
90 1 2.4218020822463298e+00 3.4678560811932893e+00 -3.1459567470051630e+00 0 0 0
132 1 3.2372993272581638e+00 3.2339172899720805e+00 -2.6146843522191245e+00 0 0 0
113 1 3.3316988821430900e+00 1.8687711304470291e+00 -3.6307697800109677e+00 0 0 0
119 1 3.9443776619149165e+00 2.8392276098787494e+00 -2.0384436528961682e+00 0 0 0
209 1 4.3448372039483205e+00 1.9645435794430537e+00 -2.2421537919754466e+00 0 0 0
372 1 3.7147266000160486e+00 2.4051423676544661e+00 -2.8614274588969346e+00 0 0 0
218 1 -2.2965576721567116e+00 4.4115955016951753e+00 -1.7482935758651070e+00 0 0 0
16 1 -1.6271293071218196e+00 4.3808881668997994e+00 -2.4390164162643813e+00 0 0 0
131 1 -8.9666996276595778e-01 4.1993290798955440e+00 -3.0571420318339428e+00 0 0 0
206 1 2.1569426732737920e-01 4.9039124830339746e+00 -1.9192230239057539e+00 0 0 0
269 1 -1.4495581625301075e+00 4.8253698769962172e+00 -1.5523288865829268e+00 0 0 0
363 1 -7.2116241806194303e-01 4.7255191050852225e+00 -2.2218939896071896e+00 0 0 0
391 1 -1.3072064177615939e-01 3.8729303052858541e+00 -3.5717215969686267e+00 0 0 0
26 1 1.7445467572250906e+00 4.0925025147116365e+00 -2.8261908455407343e+00 0 0 0
166 1 8.1444146610051993e-01 4.0659993974730977e+00 -3.2534671634520373e+00 0 0 0
184 1 1.1494944406644587e+00 4.9138096693436157e+00 -1.5231733732574160e+00 0 0 0
256 1 9.9198982230747279e-01 4.5721607153077102e+00 -2.4264632739043628e+00 0 0 0
359 1 1.9225793949540320e+00 4.5053533564690182e+00 -1.9474313852527536e+00 0 0 0
382 1 4.3559450648841674e-02 4.4694312603523070e+00 -2.7933843320455445e+00 0 0 0
72 1 2.6278863919499185e+00 3.9417735165017120e+00 -2.3139987218906168e+00 0 0 0
50 1 -2.1507850358335361e+00 -4.7668879995603017e+00 -6.5182711228284940e-01 0 0 0
144 1 -3.4388529659875586e+00 -3.8195653143891177e+00 -1.1709696714840467e+00 0 0 0
303 1 -2.5296245436608813e+00 -4.6032283708830199e+00 4.1932140257460893e-01 0 0 0
331 1 -3.6889927835313676e+00 -3.7603022363962229e+00 -1.9263663799460909e-01 0 0 0
390 1 -2.9715017185749861e+00 -4.3324825336085429e+00 -4.3939651039619959e-01 0 0 0
78 1 -1.6651886445328392e+00 -4.9968838600649921e+00 1.7126606563200866e-01 0 0 0
227 1 -7.5215786472863277e-01 -5.2178394013675309e+00 -1.6147189822890151e-02 0 0 0
239 1 -1.2490276117978707e+00 -5.0574613157890562e+00 -8.0301738329755545e-01 0 0 0
346 1 -1.7491878523527351e+00 -4.7143685549149659e+00 -1.5798284963055000e+00 0 0 0
53 1 1.0182580441002558e+00 -5.0061041643005950e+00 -1.3022678187680889e+00 0 0 0
205 1 1.0242055072266960e+00 -5.1587286718464611e+00 -3.5846009516655336e-01 0 0 0
288 1 1.4233394463596008e-01 -5.0138561373314507e+00 -1.6231998459128891e+00 0 0 0
313 1 -2.3112739007680203e-01 -5.2055239404222977e+00 -7.9349825721595590e-01 0 0 0
356 1 1.8771754019018755e-01 -5.2675543569046495e+00 1.0846723844770775e-01 0 0 0
156 1 2.6460796369738881e+00 -4.5387530789251613e+00 -3.9497124000026612e-01 0 0 0
215 1 2.5310399007369582e+00 -4.4157847220029316e+00 -1.3657391658633180e+00 0 0 0
367 1 1.8459254706592476e+00 -4.8623980056076128e+00 -8.5241325949318736e-01 0 0 0
51 1 -4.9166836573382922e+00 -1.5875810596110691e+00 -1.0436750955283427e+00 0 0 0
177 1 -4.2811272106953089e+00 -3.0719794556381519e+00 7.4768291382073637e-02 0 0 0
257 1 -3.8002048366533079e+00 -3.1602071520074171e+00 -1.8298793001541107e+00 0 0 0
364 1 -4.4333719556741045e+00 -2.4335655402848744e+00 -1.4845386468249555e+00 0 0 0
368 1 -4.6652135365024883e+00 -2.3895547225229494e+00 -5.3857923379406791e-01 0 0 0
384 1 -4.1211546830140957e+00 -3.1620311216481465e+00 -8.8812093205352516e-01 0 0 0
9 1 4.1940945834195498e+00 -2.9397730709206917e+00 -1.2288891434841467e+00 0 0 0
18 1 3.3284336534814782e+00 -3.9890289668778278e+00 -8.9802942105609107e-01 0 0 0
182 1 4.5713227379842793e+00 -2.5983773093122831e+00 -3.6014234269528483e-01 0 0 0
260 1 3.7008740058290548e+00 -3.1323295567304776e+00 -2.0662294451060701e+00 0 0 0
283 1 -5.1989350584395497e+00 -6.9608690325686096e-01 -5.2122247834823399e-01 0 0 0
317 1 -5.0058819660129403e+00 -7.1441496392907156e-01 -1.4805900495796580e+00 0 0 0
349 1 -5.0394722761131394e+00 -1.5452004373379948e+00 -7.6096214182026167e-02 0 0 0
369 1 -5.1747870331846872e+00 1.6953159272783450e-01 -9.8439427872995922e-01 0 0 0
13 1 5.0216996891318946e+00 -1.1451445970272471e+00 -1.1088638194993248e+00 0 0 0
278 1 4.6497358186754107e+00 -1.4853229811551094e+00 -1.9839027643017380e+00 0 0 0
336 1 4.6938683894686353e+00 -2.0763200722647479e+00 -1.1876532037388334e+00 0 0 0
376 1 4.9768068016256057e+00 -1.6964882768851866e+00 -2.8732649887218425e-01 0 0 0
398 1 5.1609069635289639e+00 -1.6525245366927246e-01 -1.0180653050830257e+00 0 0 0
123 1 -4.8990787872972446e+00 1.5870692318475704e-01 -1.9346819763211076e+00 0 0 0
143 1 -4.9635977979234838e+00 1.0210080042437712e+00 -1.4498580125745153e+00 0 0 0
312 1 -4.5690332206941990e+00 1.8278242279959982e+00 -1.8873297966392497e+00 0 0 0
355 1 -5.2687385553066033e+00 1.6863800861375619e-01 1.3742892084292446e-02 0 0 0
14 1 4.8226245251286812e+00 1.4394721752847202e+00 -1.5636416448923272e+00 0 0 0
241 1 5.1293279797960798e+00 8.4432883130613190e-01 -8.7308622735799746e-01 0 0 0
272 1 5.1407747921222979e+00 1.1601153984508514e+00 5.0483680293778040e-02 0 0 0
370 1 4.8989775006704743e+00 1.8448602591189005e+00 -6.0206048580013705e-01 0 0 0
32 1 -4.3967133174664506e+00 2.5790740494992979e+00 -1.3385266378103096e+00 0 0 0
81 1 -4.5582382404467872e+00 2.6183621110473623e+00 -3.6492420160019495e-01 0 0 0
94 1 -4.0702449994492316e+00 3.3461010982056769e+00 1.3877971439377473e-01 0 0 0
252 1 -4.8549043754263668e+00 1.8381606034751978e+00 -9.0959378219112319e-01 0 0 0
280 1 -4.0393105623455439e+00 3.2823821894460674e+00 -8.3570081767476678e-01 0 0 0
24 1 4.0803119489312847e+00 3.3306540633064214e+00 -2.1735290571189406e-01 0 0 0
220 1 4.0467055476416736e+00 3.1729790423923872e+00 -1.1521302224328711e+00 0 0 0
271 1 4.5167876646258520e+00 2.3523617800901184e+00 -1.3563010459848750e+00 0 0 0
89 1 -2.9409559207341327e+00 4.2381376132549882e+00 -1.0803742353209453e+00 0 0 0
106 1 -2.1466767284351476e+00 4.7413658138668282e+00 -8.3344637966073332e-01 0 0 0
194 1 -3.5064462936829535e+00 3.9157075403570469e+00 -4.0145112498956692e-01 0 0 0
226 1 -2.7817691820887851e+00 4.4755751542745248e+00 -1.2325358563676128e-01 0 0 0
254 1 -1.2733264770059172e+00 5.0783619980575203e+00 -6.0535865168440917e-01 0 0 0
291 1 -3.5722247631470555e-01 5.2471832605894546e+00 -3.5465009174881507e-01 0 0 0
354 1 -1.9445518965733113e+00 4.8975571175594510e+00 1.2751231658691897e-01 0 0 0
381 1 -5.4755241951348055e-01 5.0755060075600564e+00 -1.3064078202189102e+00 0 0 0
126 1 2.1046269249751925e-01 5.2499005672826193e+00 4.2197694756064114e-01 0 0 0
147 1 3.7004154467468059e-01 5.1652574750638580e+00 -9.8411318804941073e-01 0 0 0
225 1 1.2368708152539416e+00 5.0919081400841320e+00 -5.7122984007686317e-01 0 0 0
80 1 2.0322594411886783e+00 4.7590982377792503e+00 -9.9662486599749711e-01 0 0 0
85 1 3.4785061630460987e+00 3.8777548805953215e+00 -7.9777674496577522e-01 0 0 0
293 1 2.0312694132065965e+00 4.8638697831168862e+00 -3.9970719884105058e-03 0 0 0
330 1 2.8017324135943693e+00 4.4448588091290082e+00 -4.0615782988977034e-01 0 0 0
395 1 2.7635782274219776e+00 4.2672712954791550e+00 -1.3917127845411246e+00 0 0 0
52 1 3.4685199118996546e+00 3.9646246576544306e+00 1.9131183775731972e-01 0 0 0
102 1 -2.6323028453010884e+00 -4.3478564994496711e+00 1.3981066213463207e+00 0 0 0
157 1 -1.8654676726023429e+00 -4.4788365597118585e+00 2.0582610242091572e+00 0 0 0
240 1 -1.8144275370678455e+00 -4.8204046197390191e+00 1.1322164550844840e+00 0 0 0
347 1 -2.6222907657872083e+00 -3.9259526858325668e+00 2.3261770799211758e+00 0 0 0
311 1 -9.1129798452096522e-01 -5.1103946510682778e+00 8.8631664780459296e-01 0 0 0
344 1 -1.0012721900980364e+00 -4.8635081005753156e+00 1.7781585468450651e+00 0 0 0
379 1 6.4389503301279585e-02 -5.1614710871520471e+00 1.0758018221250945e+00 0 0 0
99 1 -3.4260683053440079e-02 -4.8660109820107573e+00 2.0155414973982726e+00 0 0 0
190 1 1.7954946550528559e+00 -4.8323880645047801e+00 1.0997415796914225e+00 0 0 0
192 1 8.9881610082735774e-01 -4.9475133910862441e+00 1.5749320749166302e+00 0 0 0
380 1 9.9680546306171791e-01 -5.1384674852666405e+00 6.2600542152215255e-01 0 0 0
17 1 2.5337563057546455e+00 -4.3512220277312883e+00 1.5560374247622921e+00 0 0 0
88 1 1.8425428496045961e+00 -4.9364817841610167e+00 1.1986796015977760e-01 0 0 0
155 1 2.5972886089879541e+00 -4.5493718162321075e+00 5.7968703700970603e-01 0 0 0
366 1 3.3660857193804636e+00 -4.0509082891258936e+00 6.8319319461147290e-02 0 0 0
8 1 -3.3429461883722715e+00 -3.7253075846520951e+00 1.6594381555276678e+00 0 0 0
36 1 -4.7070335506794860e+00 -2.3072698217879064e+00 4.2374699058264043e-01 0 0 0
145 1 -4.4804856409255152e+00 -2.4161170734710189e+00 1.3461709782570708e+00 0 0 0
277 1 -3.3081616596624546e+00 -4.0386716900009052e+00 6.9376890367273114e-01 0 0 0
327 1 -3.9711219180749691e+00 -3.3194696168077682e+00 9.7132448559958684e-01 0 0 0
56 1 3.2573623686982627e+00 -4.0171761344519998e+00 1.0145099763032013e+00 0 0 0
54 1 4.7678730049507099e+00 -2.1690423655157667e+00 5.5546548723117628e-01 0 0 0
135 1 3.9856110362720623e+00 -3.4218552278572663e+00 -3.8985541426251868e-01 0 0 0
170 1 4.2899392954230269e+00 -3.0272033209633191e+00 4.7009786250832575e-01 0 0 0
234 1 4.3903602363446579e+00 -2.5596587272235243e+00 1.3856980525891260e+00 0 0 0
115 1 -5.2036453481529312e+00 -6.9395629618111421e-01 4.6847909530728404e-01 0 0 0
237 1 -5.0150497302333710e+00 -7.1916581060240292e-01 1.4522231902736780e+00 0 0 0
353 1 -4.9636791319166296e+00 -1.5275339258155189e+00 9.0073511500168368e-01 0 0 0
116 1 4.7754886850818163e+00 -1.6857278471248180e+00 1.4541028566557539e+00 0 0 0
174 1 5.2129437111966412e+00 -7.3831247112149689e-01 -2.1083208904729478e-01 0 0 0
213 1 5.0855899050299493e+00 -1.2338211689561738e+00 6.1729447425968564e-01 0 0 0
231 1 5.0043386979420772e+00 -7.5207922354346857e-01 1.4716165445800122e+00 0 0 0
76 1 -4.9453626346815431e+00 9.7280603486495099e-01 1.5397380811812404e+00 0 0 0
127 1 -5.1419080954696046e+00 1.0118438941486907e+00 5.5541148018885433e-01 0 0 0
294 1 -5.1704381867311930e+00 1.4614511559204835e-01 1.0178487854653093e+00 0 0 0
306 1 -5.1503573624551500e+00 1.0233301101670513e+00 -4.5387613112441405e-01 0 0 0
66 1 5.2184613987105601e+00 -2.0791159732488423e-01 7.1122741930225963e-01 0 0 0
146 1 4.8943883312090462e+00 1.8252152912600541e+00 6.8720151664784856e-01 0 0 0
175 1 4.7255039451147365e+00 1.6756148697249624e+00 1.6242301269477195e+00 0 0 0
341 1 4.8397090803999454e+00 7.5561865552932073e-01 1.9454718824324337e+00 0 0 0
378 1 5.2634686433709117e+00 2.2963214650249508e-01 -1.3489784789395923e-01 0 0 0
396 1 5.1040314776542717e+00 8.5844197194390948e-01 9.9183829506732879e-01 0 0 0
55 1 -4.9354213831396017e+00 1.8467031917771641e+00 8.7746637417753931e-02 0 0 0
77 1 -4.3075849659096903e+00 2.6061765814545179e+00 1.5582534094425056e+00 0 0 0
151 1 -4.5239557307019584e+00 2.6330711616791245e+00 6.1156499077463444e-01 0 0 0
362 1 -4.8262272598152496e+00 1.8291391391182066e+00 1.0708263145850381e+00 0 0 0
107 1 4.0307037913249637e+00 3.3160539769335435e+00 7.4274859062587772e-01 0 0 0
325 1 4.5840486670040113e+00 2.5947599433368698e+00 1.7673712422441573e-01 0 0 0
400 1 4.4548351662752932e+00 2.5503953206267105e+00 1.1943758564588136e+00 0 0 0
34 1 -3.3951903892902382e+00 3.9951068578718081e+00 5.4188865562630006e-01 0 0 0
250 1 -3.1441081916758375e+00 3.9644845714103805e+00 1.4799160301513876e+00 0 0 0
321 1 -3.5937927395154401e+00 3.2878371716287838e+00 2.0176660914665834e+00 0 0 0
326 1 -2.6099415562654249e+00 4.5034251583628224e+00 8.3529980557496164e-01 0 0 0
394 1 -3.9045546472282839e+00 3.3662439490865936e+00 1.0961608007643742e+00 0 0 0
60 1 -1.0262058497079714e+00 5.1572952757765895e+00 3.5713437162543532e-01 0 0 0
136 1 -1.7478595585798957e+00 4.8523279605500109e+00 1.0861747002874476e+00 0 0 0
338 1 -1.3837326173661513e+00 4.6697464870525440e+00 2.0141848462848375e+00 0 0 0
365 1 -8.4135744486434605e-01 5.0388733195541731e+00 1.2949461618111693e+00 0 0 0
249 1 9.4824434075792191e-02 5.0910020057312035e+00 1.3632164585750677e+00 0 0 0
264 1 1.6357188736450219e+00 4.6250623016089438e+00 1.9259208102863687e+00 0 0 0
320 1 1.1761016684953285e+00 5.1242242118097296e+00 3.7314437118452010e-01 0 0 0
337 1 1.0282828577369891e+00 5.0048799140734017e+00 1.2946499126821291e+00 0 0 0
33 1 3.3459822146152778e+00 3.9000953084589312e+00 1.1733071405028164e+00 0 0 0
67 1 2.5414505078705742e+00 4.3410516909899215e+00 1.5745203023452676e+00 0 0 0
202 1 1.9159261498744675e+00 4.8121838395221310e+00 9.7675491272532899e-01 0 0 0
292 1 3.0915645752995244e+00 3.7118947137929741e+00 2.1105713519524572e+00 0 0 0
352 1 2.7394509740052180e+00 4.4642578998072482e+00 5.9621259433526586e-01 0 0 0
59 1 -1.8390698403137988e+00 -3.9768591797737471e+00 2.9295539781948534e+00 0 0 0
247 1 -9.7804148128579349e-01 -3.9115912822749044e+00 3.3940593481451105e+00 0 0 0
185 1 -7.6072911687431341e-02 -3.7961761336114774e+00 3.6626215408918825e+00 0 0 0
244 1 -1.0369925523001801e-01 -4.4050671638221184e+00 2.8906230337614716e+00 0 0 0
253 1 -1.0390365183964327e+00 -4.4546830357961440e+00 2.6206307262226689e+00 0 0 0
31 1 1.7023099904033532e+00 -4.5564865231446436e+00 2.0288302777242269e+00 0 0 0
39 1 1.8047796211216618e-01 -3.1023577611222146e+00 4.2612564118489544e+00 0 0 0
168 1 1.6210483143909069e+00 -4.1084764924918504e+00 2.8744346119496935e+00 0 0 0
197 1 8.0856259372655914e-01 -4.5847382701708019e+00 2.4691427868908584e+00 0 0 0
309 1 7.4009757500737772e-01 -4.0649686426821434e+00 3.2722360732686733e+00 0 0 0
348 1 1.4554507380951336e+00 -3.5383817443581989e+00 3.6262314931036581e+00 0 0 0
73 1 2.4699117606891456e+00 -3.9594198324074732e+00 2.4473600366944406e+00 0 0 0
267 1 2.3293937637950086e+00 -3.4270254609638746e+00 3.2535600012389914e+00 0 0 0
83 1 -3.8180983770629320e+00 -2.4592315072513395e+00 2.7061495579435202e+00 0 0 0
357 1 -3.9239895310832980e+00 -2.9806271802782405e+00 1.8953216614103154e+00 0 0 0
7 1 -1.6843464481404617e+00 -3.3387753386331407e+00 3.7227181869032422e+00 0 0 0
44 1 -3.2478350444105346e+00 -3.2271205029010419e+00 2.5611215730926347e+00 0 0 0
117 1 -3.1234894217858127e+00 -2.5907982566938745e+00 3.3702373956836613e+00 0 0 0
314 1 -2.5211085881457196e+00 -3.3416546863213963e+00 3.2059780175201884e+00 0 0 0
38 1 3.6545417422385995e+00 -2.3810117831645035e+00 2.9622965204472020e+00 0 0 0
62 1 3.2313815676971553e+00 -3.6898440428253214e+00 1.9233538539586368e+00 0 0 0
217 1 3.1333733431676070e+00 -3.2112285792686777e+00 2.7658903985175369e+00 0 0 0
29 1 3.8675671450907316e+00 -3.3463182471769635e+00 1.2717042664373437e+00 0 0 0
109 1 3.8310900264631793e+00 -2.9179825334765086e+00 2.1439473469853905e+00 0 0 0
273 1 4.2922185962406170e+00 -2.0646903995906274e+00 2.2550611319905265e+00 0 0 0
11 1 -4.1754521048858022e+00 -1.5866196704439548e+00 2.6004283547982765e+00 0 0 0
19 1 -4.6390879477578837e+00 -7.6635087428253723e-01 2.3726945659601513e+00 0 0 0
224 1 -4.4082837290497547e+00 2.5144915618498877e-02 2.8994527691026359e+00 0 0 0
305 1 -4.0675894582597456e+00 -8.4828745115551130e-01 3.2036428784169924e+00 0 0 0
383 1 -4.6901305347009128e+00 -1.5792101281948716e+00 1.8086837673430953e+00 0 0 0
28 1 -3.6493603069635383e+00 -1.7500740906478236e+00 3.3901006714644084e+00 0 0 0
15 1 4.3028283495987818e+00 -5.1868700855658678e-01 2.9981469141984256e+00 0 0 0
171 1 4.0438869679845233e+00 -1.4773356111489486e+00 3.0407809705876470e+00 0 0 0
282 1 4.7827261745083458e+00 -1.8120833335246816e-01 2.2070451051566784e+00 0 0 0
322 1 4.6080096702477453e+00 -1.1446080876865561e+00 2.2879645015546433e+00 0 0 0
3 1 -4.8829881126901062e+00 9.6781781063654412e-02 1.9857090803763893e+00 0 0 0
20 1 -4.0040806888360807e+00 8.1317818181869739e-01 3.3319088486224064e+00 0 0 0
104 1 -3.7656225100829492e+00 -5.7010694880388180e-02 3.6813517198721097e+00 0 0 0
268 1 -4.5720347876235712e+00 8.8745103021406124e-01 2.4662244443125707e+00 0 0 0
125 1 4.4293062466344759e+00 4.7358518765524538e-01 2.8192017493070511e+00 0 0 0
212 1 3.8693920481260839e+00 1.4361765169200791e-01 3.5758083926245177e+00 0 0 0
301 1 4.4002528311727120e+00 1.4368537979648284e+00 2.5207156433919766e+00 0 0 0
343 1 3.9287560824557146e+00 1.1232027575504273e+00 3.3288854744626928e+00 0 0 0
138 1 -4.1127767889405442e+00 1.6383225808540609e+00 2.8641944724452433e+00 0 0 0
248 1 -3.9443181388283337e+00 2.4972800604416530e+00 2.4506295043455499e+00 0 0 0
307 1 -4.5418333442271095e+00 1.7678268571294342e+00 2.0058479025519831e+00 0 0 0
37 1 -3.4844380075366108e+00 2.2335543667112399e+00 3.2649025036207440e+00 0 0 0
48 1 -2.3283934598850462e+00 3.4584040998081207e+00 3.2256480029759529e+00 0 0 0
122 1 -3.1815482461195947e+00 3.0601310111059390e+00 2.8811256811636499e+00 0 0 0
25 1 2.2340302892924901e+00 3.0133541592919508e+00 3.7012635242934842e+00 0 0 0
68 1 3.8426663019416711e+00 3.1868440584590161e+00 1.6957958403147217e+00 0 0 0
71 1 3.2903324322598713e+00 1.7179019975371006e+00 3.7419270063148797e+00 0 0 0
204 1 2.7141119743873512e+00 3.4108905973229509e+00 2.9634128663350419e+00 0 0 0
284 1 3.0705606776269145e+00 2.6019558105874592e+00 3.4037542227752202e+00 0 0 0
49 1 4.2026177493845598e+00 2.3569993395756366e+00 2.1348787214986689e+00 0 0 0
216 1 3.5203953926453853e+00 2.9419134804855913e+00 2.5932148416155787e+00 0 0 0
399 1 3.8101744306051639e+00 2.0726065428655374e+00 2.9931757661495380e+00 0 0 0
111 1 -2.2988127956803983e+00 4.3976460325716626e+00 1.7778977082570646e+00 0 0 0
120 1 -2.7791298966908151e+00 3.7916465127383718e+00 2.3850174063623513e+00 0 0 0
23 1 -9.1974122044618667e-01 4.3478064381992789e+00 2.8370209541795659e+00 0 0 0
92 1 -1.8857297748832968e+00 4.1376528446323748e+00 2.6680288056495889e+00 0 0 0
152 1 -1.3891746193113210e+00 3.7358665858181648e+00 3.4501452656417899e+00 0 0 0
6 1 1.1929122789581161e+00 4.3292840966774557e+00 2.7573463949119632e+00 0 0 0
46 1 -4.0702738148704637e-01 4.8010798510940091e+00 2.1385053093779027e+00 0 0 0
172 1 6.0986754847842617e-01 4.7811868603145182e+00 2.1330182403311673e+00 0 0 0
191 1 9.4418860524945553e-02 4.4198655991708886e+00 2.8709027230010409e+00 0 0 0
243 1 1.7534615562831541e+00 3.7360794653393881e+00 3.2758553005189781e+00 0 0 0
323 1 6.4871807911529622e-01 3.9148545383378410e+00 3.4685141349529127e+00 0 0 0
163 1 2.2141907251997281e+00 4.0896436767751627e+00 2.4810750683553131e+00 0 0 0
199 1 -2.8976944786573040e+00 -1.8440369065674347e+00 3.9989332567738902e+00 0 0 0
266 1 -2.3144744427798076e+00 -2.6297608172718938e+00 3.9270326229775394e+00 0 0 0
158 1 -7.6780612217159105e-01 -3.2456360860498963e+00 4.0805468464564498e+00 0 0 0
242 1 -1.4200720151253539e+00 -2.5952197944957622e+00 4.3665366530689376e+00 0 0 0
262 1 -1.0767097839625481e+00 -1.7831574853885777e+00 4.8414503437185470e+00 0 0 0
397 1 -4.5105955834368244e-01 -2.4830645229492201e+00 4.6332513544479736e+00 0 0 0
79 1 1.1101726436299193e+00 -2.9229542872609846e+00 4.2430913023876595e+00 0 0 0
84 1 2.0322903672203911e+00 -2.8121083561674642e+00 3.9694406433850187e+00 0 0 0
173 1 -7.9453557724182389e-02 -1.6450840025319216e+00 5.0057308114967469e+00 0 0 0
371 1 5.4840706720407906e-01 -2.3054408004003317e+00 4.7070163235665881e+00 0 0 0
40 1 2.8886651424435636e+00 -2.6348150380811539e+00 3.5358498634272371e+00 0 0 0
251 1 1.5623426056225360e+00 -2.1432932407523566e+00 4.5539319043924129e+00 0 0 0
103 1 -2.5926379264082309e+00 -1.0473376294265877e+00 4.4685188561646418e+00 0 0 0
210 1 -3.4001407433515247e+00 -9.6248632790446087e-01 3.9206364134745257e+00 0 0 0
214 1 -2.2007998777807680e+00 -2.3505296695356237e-01 4.7825312205742128e+00 0 0 0
114 1 -1.6654594656555013e+00 -1.0239139806391226e+00 4.8939769336405901e+00 0 0 0
154 1 -2.0319093312873751e+00 -1.8518721366174258e+00 4.4965074494958337e+00 0 0 0
208 1 -6.9202006267431682e-01 -9.1098581185347383e-01 5.1445226113434224e+00 0 0 0
387 1 -3.1032970274368366e-01 4.2719433108929822e-04 5.2619533460980081e+00 0 0 0
97 1 3.1776953747888287e-01 -7.7243376783723317e-01 5.2059611685464340e+00 0 0 0