ITEM: TIMESTEP
0
ITEM: NUMBER OF ATOMS
1560
ITEM: BOX BOUNDS pp pp pp
-4.0000000000000000e+00 1.2000000000000000e+01
-2.0000000000000000e+00 1.4000000000000000e+01
-3.0000000000000000e+00 2.7000000000000000e+01
ITEM: ATOMS id mol type x y z 
136 4 1                   -3             1.866025                    0 
137 4 1               -2.875             1.649519                    0 
138 4 1                -2.75             1.433013                    0 
139 4 1               -2.625             1.216506                    0 
140 4 1                 -2.5                    1                    0 
141 4 1                -2.75                    1                    0 
142 4 1                   -3                    1                    0 
143 4 1                -3.25                    1                    0 
144 4 1                 -3.5                    1                    0 
145 4 1                -3.75                    1                    0 
146 4 1                   -4                    1                    0 
152 4 2              -3.1875                 0.75                    0 
155 4 2            -2.627244             1.720392                    0 
1 1 1                -1.25                    1                    0 
2 1 1               -1.125             1.216506                    0 
3 1 1                   -1             1.433013                    0 
4 1 1               -0.875             1.649519                    0 
5 1 1                -0.75             1.866025                    0 
31 1 1                 -0.5                    1                    0 
32 1 1                -0.75                    1                    0 
33 1 1                   -1                    1                    0 
34 1 2              -0.5625                 0.75                    0 
37 1 2            -1.122756             1.720392                    0 
19 1 1                    1             1.866025                    0 
20 1 1                1.125             1.649519                    0 
21 1 1                 1.25             1.433013                    0 
24 1 1                 1.25                    1                    0 
25 1 1                    1                    1                    0 
26 1 1                 0.75                    1                    0 
27 1 1                  0.5                    1                    0 
28 1 1                 0.25                    1                    0 
29 1 1                    0                    1                    0 
30 1 1                -0.25                    1                    0 
35 1 2               0.8125                 0.75                    0 
22 1 1                1.375             1.216506                    0 
23 1 1                  1.5                    1                    0 
38 1 2             1.372756             1.720392                    0 
40 2 1                 2.75                    1                    0 
41 2 1                2.875             1.216506                    0 
42 2 1                    3             1.433013                    0 
72 2 1                    3                    1                    0 
76 2 2             2.877244             1.720392                    0 
43 2 1                3.125             1.649519                    0 
44 2 1                 3.25             1.866025                    0 
65 2 1                 4.75                    1                    0 
66 2 1                  4.5                    1                    0 
67 2 1                 4.25                    1                    0 
68 2 1                    4                    1                    0 
69 2 1                 3.75                    1                    0 
70 2 1                  3.5                    1                    0 
71 2 1                 3.25                    1                    0 
73 2 2               3.4375                 0.75                    0 
74 2 2               4.8125                 0.75                    0 
58 2 1                    5             1.866025                    0 
59 2 1                5.125             1.649519                    0 
60 2 1                 5.25             1.433013                    0 
61 2 1                5.375             1.216506                    0 
62 2 1                  5.5                    1                    0 
63 2 1                 5.25                    1                    0 
64 2 1                    5                    1                    0 
77 2 2             5.372756             1.720392                    0 
79 3 1                 6.75                    1                    0 
80 3 1                6.875             1.216506                    0 
81 3 1                    7             1.433013                    0 
82 3 1                7.125             1.649519                    0 
83 3 1                 7.25             1.866025                    0 
106 3 1                 8.25                    1                    0 
107 3 1                    8                    1                    0 
108 3 1                 7.75                    1                    0 
109 3 1                  7.5                    1                    0 
110 3 1                 7.25                    1                    0 
111 3 1                    7                    1                    0 
112 3 2               7.4375                 0.75                    0 
115 3 2             6.877244             1.720392                    0 
97 3 1                    9             1.866025                    0 
98 3 1                9.125             1.649519                    0 
99 3 1                 9.25             1.433013                    0 
100 3 1                9.375             1.216506                    0 
101 3 1                  9.5                    1                    0 
102 3 1                 9.25                    1                    0 
103 3 1                    9                    1                    0 
104 3 1                 8.75                    1                    0 
105 3 1                  8.5                    1                    0 
113 3 2               8.8125                 0.75                    0 
116 3 2             9.372756             1.720392                    0 
118 4 1                10.75                    1                    0 
119 4 1               10.875             1.216506                    0 
120 4 1                   11             1.433013                    0 
121 4 1               11.125             1.649519                    0 
122 4 1                11.25             1.866025                    0 
147 4 1                11.75                    1                    0 
148 4 1                 11.5                    1                    0 
149 4 1                11.25                    1                    0 
150 4 1                   11                    1                    0 
151 4 2              11.4375                 0.75                    0 
154 4 2            10.877244             1.720392                    0 
128 4 1                   -4             3.165064                    0 
129 4 1               -3.875              3.38157                    0 
130 4 1                -3.75             3.165064                    0 
131 4 1               -3.625             2.948557                    0 
132 4 1                 -3.5             2.732051                    0 
133 4 1               -3.375             2.515544                    0 
134 4 1                -3.25             2.299038                    0 
135 4 1               -3.125             2.082532                    0 
156 4 2            -3.314744             2.911177                    0 
6 1 1               -0.625             2.082532                    0 
7 1 1                 -0.5             2.299038                    0 
8 1 1               -0.375             2.515544                    0 
9 1 1                -0.25             2.732051                    0 
10 1 1               -0.125             2.948557                    0 
11 1 1                    0             3.165064                    0 
12 1 1                0.125              3.38157                    0 
13 1 1                 0.25             3.165064                    0 
14 1 1                0.375             2.948557                    0 
15 1 1                  0.5             2.732051                    0 
16 1 1                0.625             2.515544                    0 
17 1 1                 0.75             2.299038                    0 
18 1 1                0.875             2.082532                    0 
36 1 2            -0.435256             2.911177                    0 
39 1 2             0.685256             2.911177                    0 
45 2 1                3.375             2.082532                    0 
46 2 1                  3.5             2.299038                    0 
47 2 1                3.625             2.515544                    0 
48 2 1                 3.75             2.732051                    0 
49 2 1                3.875             2.948557                    0 
50 2 1                    4             3.165064                    0 
51 2 1                4.125              3.38157                    0 
52 2 1                 4.25             3.165064                    0 
53 2 1                4.375             2.948557                    0 
54 2 1                  4.5             2.732051                    0 
55 2 1                4.625             2.515544                    0 
56 2 1                 4.75             2.299038                    0 
57 2 1                4.875             2.082532                    0 
75 2 2             3.564744             2.911177                    0 
78 2 2             4.685256             2.911177                    0 
84 3 1                7.375             2.082532                    0 
85 3 1                  7.5             2.299038                    0 
86 3 1                7.625             2.515544                    0 
87 3 1                 7.75             2.732051                    0 
88 3 1                7.875             2.948557                    0 
89 3 1                    8             3.165064                    0 
90 3 1                8.125              3.38157                    0 
91 3 1                 8.25             3.165064                    0 
92 3 1                8.375             2.948557                    0 
114 3 2             7.564744             2.911177                    0 
93 3 1                  8.5             2.732051                    0 
94 3 1                8.625             2.515544                    0 
95 3 1                 8.75             2.299038                    0 
96 3 1                8.875             2.082532                    0 
117 3 2             8.685256             2.911177                    0 
123 4 1               11.375             2.082532                    0 
124 4 1                 11.5             2.299038                    0 
125 4 1               11.625             2.515544                    0 
126 4 1                11.75             2.732051                    0 
127 4 1               11.875             2.948557                    0 
153 4 2            11.564744             2.911177                    0 
448 12 1                   -3             1.866025                    6 
449 12 1               -2.875             1.649519                    6 
450 12 1                -2.75             1.433013                    6 
451 12 1               -2.625             1.216506                    6 
452 12 1                 -2.5                    1                    6 
453 12 1                -2.75                    1                    6 
454 12 1                   -3                    1                    6 
455 12 1                -3.25                    1                    6 
456 12 1                 -3.5                    1                    6 
457 12 1                -3.75                    1                    6 
458 12 1                   -4                    1                    6 
464 12 2              -3.1875                 0.75                    6 
467 12 2            -2.627244             1.720392                    6 
313 9 1                -1.25                    1                    6 
314 9 1               -1.125             1.216506                    6 
315 9 1                   -1             1.433013                    6 
316 9 1               -0.875             1.649519                    6 
317 9 1                -0.75             1.866025                    6 
343 9 1                 -0.5                    1                    6 
344 9 1                -0.75                    1                    6 
345 9 1                   -1                    1                    6 
346 9 2              -0.5625                 0.75                    6 
349 9 2            -1.122756             1.720392                    6 
331 9 1                    1             1.866025                    6 
332 9 1                1.125             1.649519                    6 
333 9 1                 1.25             1.433013                    6 
336 9 1                 1.25                    1                    6 
337 9 1                    1                    1                    6 
338 9 1                 0.75                    1                    6 
339 9 1                  0.5                    1                    6 
340 9 1                 0.25                    1                    6 
341 9 1                    0                    1                    6 
342 9 1                -0.25                    1                    6 
347 9 2               0.8125                 0.75                    6 
334 9 1                1.375             1.216506                    6 
335 9 1                  1.5                    1                    6 
350 9 2             1.372756             1.720392                    6 
352 10 1                 2.75                    1                    6 
353 10 1                2.875             1.216506                    6 
354 10 1                    3             1.433013                    6 
384 10 1                    3                    1                    6 
388 10 2             2.877244             1.720392                    6 
355 10 1                3.125             1.649519                    6 
356 10 1                 3.25             1.866025                    6 
377 10 1                 4.75                    1                    6 
378 10 1                  4.5                    1                    6 
379 10 1                 4.25                    1                    6 
380 10 1                    4                    1                    6 
381 10 1                 3.75                    1                    6 
382 10 1                  3.5                    1                    6 
383 10 1                 3.25                    1                    6 
385 10 2               3.4375                 0.75                    6 
386 10 2               4.8125                 0.75                    6 
370 10 1                    5             1.866025                    6 
371 10 1                5.125             1.649519                    6 
372 10 1                 5.25             1.433013                    6 
373 10 1                5.375             1.216506                    6 
374 10 1                  5.5                    1                    6 
375 10 1                 5.25                    1                    6 
376 10 1                    5                    1                    6 
389 10 2             5.372756             1.720392                    6 
391 11 1                 6.75                    1                    6 
392 11 1                6.875             1.216506                    6 
393 11 1                    7             1.433013                    6 
394 11 1                7.125             1.649519                    6 
395 11 1                 7.25             1.866025                    6 
418 11 1                 8.25                    1                    6 
419 11 1                    8                    1                    6 
420 11 1                 7.75                    1                    6 
421 11 1                  7.5                    1                    6 
422 11 1                 7.25                    1                    6 
423 11 1                    7                    1                    6 
424 11 2               7.4375                 0.75                    6 
427 11 2             6.877244             1.720392                    6 
409 11 1                    9             1.866025                    6 
410 11 1                9.125             1.649519                    6 
411 11 1                 9.25             1.433013                    6 
412 11 1                9.375             1.216506                    6 
413 11 1                  9.5                    1                    6 
414 11 1                 9.25                    1                    6 
415 11 1                    9                    1                    6 
416 11 1                 8.75                    1                    6 
417 11 1                  8.5                    1                    6 
425 11 2               8.8125                 0.75                    6 
428 11 2             9.372756             1.720392                    6 
430 12 1                10.75                    1                    6 
431 12 1               10.875             1.216506                    6 
432 12 1                   11             1.433013                    6 
433 12 1               11.125             1.649519                    6 
434 12 1                11.25             1.866025                    6 
459 12 1                11.75                    1                    6 
460 12 1                 11.5                    1                    6 
461 12 1                11.25                    1                    6 
462 12 1                   11                    1                    6 
463 12 2              11.4375                 0.75                    6 
466 12 2            10.877244             1.720392                    6 
440 12 1                   -4             3.165064                    6 
441 12 1               -3.875              3.38157                    6 
442 12 1                -3.75             3.165064                    6 
443 12 1               -3.625             2.948557                    6 
444 12 1                 -3.5             2.732051                    6 
445 12 1               -3.375             2.515544                    6 
446 12 1                -3.25             2.299038                    6 
447 12 1               -3.125             2.082532                    6 
468 12 2            -3.314744             2.911177                    6 
318 9 1               -0.625             2.082532                    6 
319 9 1                 -0.5             2.299038                    6 
320 9 1               -0.375             2.515544                    6 
321 9 1                -0.25             2.732051                    6 
322 9 1               -0.125             2.948557                    6 
323 9 1                    0             3.165064                    6 
324 9 1                0.125              3.38157                    6 
325 9 1                 0.25             3.165064                    6 
326 9 1                0.375             2.948557                    6 
327 9 1                  0.5             2.732051                    6 
328 9 1                0.625             2.515544                    6 
329 9 1                 0.75             2.299038                    6 
330 9 1                0.875             2.082532                    6 
348 9 2            -0.435256             2.911177                    6 
351 9 2             0.685256             2.911177                    6 
357 10 1                3.375             2.082532                    6 
358 10 1                  3.5             2.299038                    6 
359 10 1                3.625             2.515544                    6 
360 10 1                 3.75             2.732051                    6 
361 10 1                3.875             2.948557                    6 
362 10 1                    4             3.165064                    6 
363 10 1                4.125              3.38157                    6 
364 10 1                 4.25             3.165064                    6 
365 10 1                4.375             2.948557                    6 
366 10 1                  4.5             2.732051                    6 
367 10 1                4.625             2.515544                    6 
368 10 1                 4.75             2.299038                    6 
369 10 1                4.875             2.082532                    6 
387 10 2             3.564744             2.911177                    6 
390 10 2             4.685256             2.911177                    6 
396 11 1                7.375             2.082532                    6 
397 11 1                  7.5             2.299038                    6 
398 11 1                7.625             2.515544                    6 
399 11 1                 7.75             2.732051                    6 
400 11 1                7.875             2.948557                    6 
401 11 1                    8             3.165064                    6 
402 11 1                8.125              3.38157                    6 
403 11 1                 8.25             3.165064                    6 
404 11 1                8.375             2.948557                    6 
426 11 2             7.564744             2.911177                    6 
405 11 1                  8.5             2.732051                    6 
406 11 1                8.625             2.515544                    6 
407 11 1                 8.75             2.299038                    6 
408 11 1                8.875             2.082532                    6 
429 11 2             8.685256             2.911177                    6 
435 12 1               11.375             2.082532                    6 
436 12 1                 11.5             2.299038                    6 
437 12 1               11.625             2.515544                    6 
438 12 1                11.75             2.732051                    6 
439 12 1               11.875             2.948557                    6 
465 12 2            11.564744             2.911177                    6 
760 20 1                   -3             1.866025                   12 
761 20 1               -2.875             1.649519                   12 
762 20 1                -2.75             1.433013                   12 
763 20 1               -2.625             1.216506                   12 
764 20 1                 -2.5                    1                   12 
765 20 1                -2.75                    1                   12 
766 20 1                   -3                    1                   12 
767 20 1                -3.25                    1                   12 
768 20 1                 -3.5                    1                   12 
769 20 1                -3.75                    1                   12 
770 20 1                   -4                    1                   12 
776 20 2              -3.1875                 0.75                   12 
779 20 2            -2.627244             1.720392                   12 
625 17 1                -1.25                    1                   12 
626 17 1               -1.125             1.216506                   12 
627 17 1                   -1             1.433013                   12 
628 17 1               -0.875             1.649519                   12 
629 17 1                -0.75             1.866025                   12 
655 17 1                 -0.5                    1                   12 
656 17 1                -0.75                    1                   12 
657 17 1                   -1                    1                   12 
658 17 2              -0.5625                 0.75                   12 
661 17 2            -1.122756             1.720392                   12 
643 17 1                    1             1.866025                   12 
644 17 1                1.125             1.649519                   12 
645 17 1                 1.25             1.433013                   12 
648 17 1                 1.25                    1                   12 
649 17 1                    1                    1                   12 
650 17 1                 0.75                    1                   12 
651 17 1                  0.5                    1                   12 
652 17 1                 0.25                    1                   12 
653 17 1                    0                    1                   12 
654 17 1                -0.25                    1                   12 
659 17 2               0.8125                 0.75                   12 
646 17 1                1.375             1.216506                   12 
647 17 1                  1.5                    1                   12 
662 17 2             1.372756             1.720392                   12 
664 18 1                 2.75                    1                   12 
665 18 1                2.875             1.216506                   12 
666 18 1                    3             1.433013                   12 
696 18 1                    3                    1                   12 
700 18 2             2.877244             1.720392                   12 
667 18 1                3.125             1.649519                   12 
668 18 1                 3.25             1.866025                   12 
689 18 1                 4.75                    1                   12 
690 18 1                  4.5                    1                   12 
691 18 1                 4.25                    1                   12 
692 18 1                    4                    1                   12 
693 18 1                 3.75                    1                   12 
694 18 1                  3.5                    1                   12 
695 18 1                 3.25                    1                   12 
697 18 2               3.4375                 0.75                   12 
698 18 2               4.8125                 0.75                   12 
682 18 1                    5             1.866025                   12 
683 18 1                5.125             1.649519                   12 
684 18 1                 5.25             1.433013                   12 
685 18 1                5.375             1.216506                   12 
686 18 1                  5.5                    1                   12 
687 18 1                 5.25                    1                   12 
688 18 1                    5                    1                   12 
701 18 2             5.372756             1.720392                   12 
703 19 1                 6.75                    1                   12 
704 19 1                6.875             1.216506                   12 
705 19 1                    7             1.433013                   12 
706 19 1                7.125             1.649519                   12 
707 19 1                 7.25             1.866025                   12 
730 19 1                 8.25                    1                   12 
731 19 1                    8                    1                   12 
732 19 1                 7.75                    1                   12 
733 19 1                  7.5                    1                   12 
734 19 1                 7.25                    1                   12 
735 19 1                    7                    1                   12 
736 19 2               7.4375                 0.75                   12 
739 19 2             6.877244             1.720392                   12 
721 19 1                    9             1.866025                   12 
722 19 1                9.125             1.649519                   12 
723 19 1                 9.25             1.433013                   12 
724 19 1                9.375             1.216506                   12 
725 19 1                  9.5                    1                   12 
726 19 1                 9.25                    1                   12 
727 19 1                    9                    1                   12 
728 19 1                 8.75                    1                   12 
729 19 1                  8.5                    1                   12 
737 19 2               8.8125                 0.75                   12 
740 19 2             9.372756             1.720392                   12 
742 20 1                10.75                    1                   12 
743 20 1               10.875             1.216506                   12 
744 20 1                   11             1.433013                   12 
745 20 1               11.125             1.649519                   12 
746 20 1                11.25             1.866025                   12 
771 20 1                11.75                    1                   12 
772 20 1                 11.5                    1                   12 
773 20 1                11.25                    1                   12 
774 20 1                   11                    1                   12 
775 20 2              11.4375                 0.75                   12 
778 20 2            10.877244             1.720392                   12 
752 20 1                   -4             3.165064                   12 
753 20 1               -3.875              3.38157                   12 
754 20 1                -3.75             3.165064                   12 